  0.0000000E+00  0.0000000E+00
  5.0000002E-04  0.0000000E+00
  1.0000000E-03  0.0000000E+00
  1.5000000E-03  0.0000000E+00
  2.0000001E-03  0.0000000E+00
  2.4999999E-03  0.0000000E+00
  3.0000000E-03  0.0000000E+00
  3.5000001E-03  0.0000000E+00
  4.0000002E-03  0.0000000E+00
  4.4999998E-03  0.0000000E+00
  4.9999999E-03  0.0000000E+00
  5.5000000E-03  0.0000000E+00
  6.0000001E-03  0.0000000E+00
  6.5000001E-03  0.0000000E+00
  7.0000002E-03  0.0000000E+00
  7.4999998E-03  0.0000000E+00
  8.0000004E-03  0.0000000E+00
  8.5000005E-03  0.0000000E+00
  8.9999996E-03  0.0000000E+00
  9.4999997E-03  0.0000000E+00
  9.9999998E-03  0.0000000E+00
  1.0500000E-02  0.0000000E+00
  1.1000000E-02  0.0000000E+00
  1.1500000E-02  0.0000000E+00
  1.2000000E-02  0.0000000E+00
  1.2500000E-02  0.0000000E+00
  1.3000000E-02  0.0000000E+00
  1.3500000E-02  0.0000000E+00
  1.4000000E-02  0.0000000E+00
  1.4500000E-02  0.0000000E+00
  1.5000000E-02  0.0000000E+00
  1.5500000E-02  0.0000000E+00
  1.6000001E-02  0.0000000E+00
  1.6500000E-02  0.0000000E+00
  1.7000001E-02  0.0000000E+00
  1.7500000E-02  0.0000000E+00
  1.7999999E-02  0.0000000E+00
  1.8500000E-02  0.0000000E+00
  1.8999999E-02  0.0000000E+00
  1.9500000E-02  0.0000000E+00
  2.0000000E-02  0.0000000E+00
  2.0500001E-02  0.0000000E+00
  2.1000000E-02  0.0000000E+00
  2.1500001E-02  0.0000000E+00
  2.2000000E-02  0.0000000E+00
  2.2500001E-02  0.0000000E+00
  2.3000000E-02  0.0000000E+00
  2.3499999E-02  0.0000000E+00
  2.4000000E-02  0.0000000E+00
  2.4499999E-02  0.0000000E+00
  2.5000000E-02  0.0000000E+00
  2.5500000E-02  0.0000000E+00
  2.6000001E-02  0.0000000E+00
  2.6500000E-02  0.0000000E+00
  2.7000001E-02  0.0000000E+00
  2.7500000E-02  0.0000000E+00
  2.8000001E-02  0.0000000E+00
  2.8500000E-02  0.0000000E+00
  2.8999999E-02  0.0000000E+00
  2.9500000E-02  0.0000000E+00
  2.9999999E-02  0.0000000E+00
  3.0500000E-02  0.0000000E+00
  3.0999999E-02  0.0000000E+00
  3.1500001E-02  0.0000000E+00
  3.2000002E-02  0.0000000E+00
  3.2499999E-02  0.0000000E+00
  3.3000000E-02  0.0000000E+00
  3.3500001E-02  0.0000000E+00
  3.4000002E-02  0.0000000E+00
  3.4499999E-02  0.0000000E+00
  3.5000000E-02  0.0000000E+00
  3.5500001E-02  0.0000000E+00
  3.5999998E-02  0.0000000E+00
  3.6499999E-02  0.0000000E+00
  3.7000000E-02  0.0000000E+00
  3.7500001E-02  0.0000000E+00
  3.7999999E-02  0.0000000E+00
  3.8500000E-02  0.0000000E+00
  3.9000001E-02  0.0000000E+00
  3.9500002E-02  0.0000000E+00
  3.9999999E-02  0.0000000E+00
  4.0500000E-02  0.0000000E+00
  4.1000001E-02  0.0000000E+00
  4.1499998E-02  0.0000000E+00
  4.1999999E-02  0.0000000E+00
  4.2500000E-02  0.0000000E+00
  4.3000001E-02  0.0000000E+00
  4.3499999E-02  0.0000000E+00
  4.4000000E-02  0.0000000E+00
  4.4500001E-02  0.0000000E+00
  4.5000002E-02  0.0000000E+00
  4.5499999E-02  0.0000000E+00
  4.6000000E-02  0.0000000E+00
  4.6500001E-02  0.0000000E+00
  4.6999998E-02  0.0000000E+00
  4.7499999E-02  0.0000000E+00
  4.8000000E-02  0.0000000E+00
  4.8500001E-02  0.0000000E+00
  4.8999999E-02  0.0000000E+00
  4.9500000E-02  0.0000000E+00
  5.0000001E-02  0.0000000E+00
  5.0500002E-02  0.0000000E+00
  5.0999999E-02  0.0000000E+00
  5.1500000E-02  0.0000000E+00
  5.2000001E-02  0.0000000E+00
  5.2499998E-02  0.0000000E+00
  5.2999999E-02  0.0000000E+00
  5.3500000E-02  0.0000000E+00
  5.4000001E-02  0.0000000E+00
  5.4499999E-02  0.0000000E+00
  5.5000000E-02  0.0000000E+00
  5.5500001E-02  0.0000000E+00
  5.6000002E-02  0.0000000E+00
  5.6499999E-02  0.0000000E+00
  5.7000000E-02  0.0000000E+00
  5.7500001E-02  0.0000000E+00
  5.7999998E-02  0.0000000E+00
  5.8499999E-02  0.0000000E+00
  5.9000000E-02  0.0000000E+00
  5.9500001E-02  0.0000000E+00
  5.9999999E-02  0.0000000E+00
  6.0500000E-02  0.0000000E+00
  6.1000001E-02  0.0000000E+00
  6.1500002E-02  0.0000000E+00
  6.1999999E-02  0.0000000E+00
  6.2500000E-02  0.0000000E+00
  6.3000001E-02  0.0000000E+00
  6.3500002E-02  1.1776949E-38
  6.4000003E-02  2.9407588E-38
  6.4499997E-02  5.9707461E-38
  6.4999998E-02  8.9593822E-38
  6.5499999E-02  1.0381709E-37
  6.6000000E-02  1.0738638E-37
  6.6500001E-02  1.0106953E-37
  6.7000002E-02  6.7810638E-38
  6.7500003E-02 -2.6418223E-38
  6.8000004E-02 -1.5598618E-37
  6.8499997E-02 -3.1670455E-37
  6.8999998E-02 -5.0544885E-37
  6.9499999E-02 -6.8584609E-37
  7.0000000E-02 -8.5608798E-37
  7.0500001E-02 -1.0164101E-36
  7.1000002E-02 -1.1135065E-36
  7.1500003E-02 -9.5643468E-37
  7.1999997E-02 -5.2812769E-37
  7.2499998E-02 -5.6400643E-38
  7.2999999E-02  2.0593016E-37
  7.3500000E-02  3.1331913E-37
  7.4000001E-02  6.9811210E-37
  7.4500002E-02  1.2320418E-36
  7.5000003E-02  1.4285239E-36
  7.5499997E-02  9.3176949E-37
  7.5999998E-02 -1.0887013E-37
  7.6499999E-02 -1.3971217E-36
  7.7000000E-02 -3.0477866E-36
  7.7500001E-02 -4.9012027E-36
  7.8000002E-02 -6.6993098E-36
  7.8500003E-02 -8.3845851E-36
  7.9000004E-02 -9.5639538E-36
  7.9499997E-02 -9.9220146E-36
  7.9999998E-02 -9.4568707E-36
  8.0499999E-02 -7.8576137E-36
  8.1000000E-02 -5.1444171E-36
  8.1500001E-02 -1.5278521E-36
  8.2000002E-02  2.9276010E-36
  8.2500003E-02  7.5640658E-36
  8.2999997E-02  1.1630031E-35
  8.3499998E-02  1.4654493E-35
  8.3999999E-02  1.6694677E-35
  8.4500000E-02  1.9025263E-35
  8.5000001E-02  2.3943061E-35
  8.5500002E-02  3.3762210E-35
  8.6000003E-02  5.0002166E-35
  8.6499996E-02  7.3273292E-35
  8.6999997E-02  1.0292447E-34
  8.7499999E-02  1.3715419E-34
  8.8000000E-02  1.7242909E-34
  8.8500001E-02  2.0305122E-34
  8.9000002E-02  2.2093311E-34
  8.9500003E-02  2.1660499E-34
  9.0000004E-02  1.7998337E-34
  9.0499997E-02  1.0105484E-34
  9.0999998E-02 -2.8179722E-35
  9.1499999E-02 -2.1218089E-34
  9.2000000E-02 -4.4978569E-34
  9.2500001E-02 -7.3240994E-34
  9.3000002E-02 -1.0426059E-33
  9.3500003E-02 -1.3532743E-33
  9.3999997E-02 -1.6279092E-33
  9.4499998E-02 -1.8221073E-33
  9.4999999E-02 -1.8864475E-33
  9.5500000E-02 -1.7708747E-33
  9.6000001E-02 -1.4301370E-33
  9.6500002E-02 -8.3044066E-34
  9.7000003E-02  4.3502122E-35
  9.7499996E-02  1.1819412E-33
  9.7999997E-02  2.5444854E-33
  9.8499998E-02  4.0566461E-33
  9.8999999E-02  5.6092930E-33
  9.9500000E-02  7.0617074E-33
  0.1000000      8.2487201E-33
  0.1005000      8.9919852E-33
  0.1010000      9.1149066E-33
  0.1015000      8.4603363E-33
  0.1020000      6.9096285E-33
  0.1025000      4.4010898E-33
  0.1030000      9.4586052E-34
  0.1035000     -3.3609404E-33
  0.1040000     -8.3356832E-33
  0.1045000     -1.3709682E-32
  0.1050000     -1.9141203E-32
  0.1055000     -2.4235699E-32
  0.1060000     -2.8572756E-32
  0.1065000     -3.1737331E-32
  0.1070000     -3.3352022E-32
  0.1075000     -3.3106570E-32
  0.1080000     -3.0780951E-32
  0.1085000     -2.6258798E-32
  0.1090000     -1.9529212E-32
  0.1095000     -1.0676737E-32
  0.1100000      1.3888194E-34
  0.1105000      1.2709216E-32
  0.1110000      2.6804181E-32
  0.1115000      4.2192671E-32
  0.1120000      5.8648969E-32
  0.1125000      7.5938540E-32
  0.1130000      9.3778741E-32
  0.1135000      1.1177370E-31
  0.1140000      1.2932695E-31
  0.1145000      1.4554092E-31
  0.1150000      1.5911832E-31
  0.1155000      1.6828455E-31
  0.1160000      1.7075259E-31
  0.1165000      1.6375446E-31
  0.1170000      1.4415804E-31
  0.1175000      1.0868323E-31
  0.1180000      5.4222128E-32
  0.1185000     -2.1746166E-32
  0.1190000     -1.2066828E-31
  0.1195000     -2.4239530E-31
  0.1200000     -3.8467747E-31
  0.1205000     -5.4273609E-31
  0.1210000     -7.0897704E-31
  0.1215000     -8.7290574E-31
  0.1220000     -1.0212984E-30
  0.1225000     -1.1386593E-30
  0.1230000     -1.2079767E-30
  0.1235000     -1.2117537E-30
  0.1240000     -1.1332689E-30
  0.1245000     -9.5798915E-31
  0.1250000     -6.7503798E-31
  0.1255000     -2.7861278E-31
  0.1260000      2.3075697E-31
  0.1265000      8.4520338E-31
  0.1270000      1.5488420E-30
  0.1275000      2.3174565E-30
  0.1280000      3.1185532E-30
  0.1285000      3.9117729E-30
  0.1290000      4.6496090E-30
  0.1295000      5.2783962E-30
  0.1300000      5.7395455E-30
  0.1305000      5.9710479E-30
  0.1310000      5.9093056E-30
  0.1315000      5.4914364E-30
  0.1320000      4.6582340E-30
  0.1325000      3.3580059E-30
  0.1330000      1.5514998E-30
  0.1335000     -7.8193499E-31
  0.1340000     -3.6369472E-30
  0.1345000     -6.9737525E-30
  0.1350000     -1.0709162E-29
  0.1355000     -1.4707892E-29
  0.1360000     -1.8775303E-29
  0.1365000     -2.2653051E-29
  0.1370000     -2.6019317E-29
  0.1375000     -2.8495334E-29
  0.1380000     -2.9659875E-29
  0.1385000     -2.9072749E-29
  0.1390000     -2.6307911E-29
  0.1395000     -2.0995610E-29
  0.1400000     -1.2871968E-29
  0.1405000     -1.8329760E-30
  0.1410000      1.2011522E-29
  0.1415000      2.8289317E-29
  0.1420000      4.6329313E-29
  0.1425000      6.5143828E-29
  0.1430000      8.3436281E-29
  0.1435000      9.9639749E-29
  0.1440000      1.1199006E-28
  0.1445000      1.1863435E-28
  0.1450000      1.1777252E-28
  0.1455000      1.0782540E-28
  0.1460000      8.7619521E-29
  0.1465000      5.6574240E-29
  0.1470000      1.4874766E-29
  0.1475000     -3.6387994E-29
  0.1480000     -9.5129468E-29
  0.1485000     -1.5825292E-28
  0.1490000     -2.2171450E-28
  0.1495000     -2.8068055E-28
  0.1500000     -3.2977848E-28
  0.1505000     -3.6343533E-28
  0.1510000     -3.7628812E-28
  0.1515000     -3.6364251E-28
  0.1520000     -3.2194880E-28
  0.1525000     -2.4925828E-28
  0.1530000     -1.4562027E-28
  0.1535000     -1.3380872E-29
  0.1540000      1.4265282E-28
  0.1545000      3.1521106E-28
  0.1550000      4.9474088E-28
  0.1555000      6.6977353E-28
  0.1560000      8.2747108E-28
  0.1565000      9.5433209E-28
  0.1570000      1.0370207E-27
  0.1575000      1.0632749E-27
  0.1580000      1.0228408E-27
  0.1585000      9.0837458E-28
  0.1590000      7.1625676E-28
  0.1595000      4.4726300E-28
  0.1600000      1.0704468E-28
  0.1605000     -2.9362032E-28
  0.1610000     -7.3883372E-28
  0.1615000     -1.2078603E-27
  0.1620000     -1.6756962E-27
  0.1625000     -2.1139180E-27
  0.1630000     -2.4918098E-27
  0.1635000     -2.7777464E-27
  0.1640000     -2.9408109E-27
  0.1645000     -2.9526068E-27
  0.1650000     -2.7892255E-27
  0.1655000     -2.4332956E-27
  0.1660000     -1.8760353E-27
  0.1665000     -1.1191952E-27
  0.1670000     -1.7676085E-28
  0.1675000      9.2375159E-28
  0.1680000      2.1405850E-27
  0.1685000      3.4178027E-27
  0.1690000      4.6863079E-27
  0.1695000      5.8659774E-27
  0.1700000      6.8690102E-27
  0.1705000      7.6045244E-27
  0.1710000      7.9843193E-27
  0.1715000      7.9295890E-27
  0.1720000      7.3782692E-27
  0.1725000      6.2925081E-27
  0.1730000      4.6656774E-27
  0.1735000      2.5282093E-27
  0.1740000     -4.8464438E-29
  0.1745000     -2.9506042E-27
  0.1750000     -6.0241013E-27
  0.1755000     -9.0801002E-27
  0.1760000     -1.1904470E-26
  0.1765000     -1.4270961E-26
  0.1770000     -1.5957524E-26
  0.1775000     -1.6764823E-26
  0.1780000     -1.6535649E-26
  0.1785000     -1.5173596E-26
  0.1790000     -1.2659178E-26
  0.1795000     -9.0615135E-27
  0.1800000     -4.5438388E-27
  0.1805000      6.3856278E-28
  0.1810000      6.1488992E-27
  0.1815000      1.1588069E-26
  0.1820000      1.6521897E-26
  0.1825000      2.0514881E-26
  0.1830000      2.3168108E-26
  0.1835000      2.4158218E-26
  0.1840000      2.3273830E-26
  0.1845000      2.0445546E-26
  0.1850000      1.5765920E-26
  0.1855000      9.4961797E-27
  0.1860000      2.0575894E-27
  0.1865000     -5.9934031E-27
  0.1870000     -1.4005547E-26
  0.1875000     -2.1286259E-26
  0.1880000     -2.7164022E-26
  0.1885000     -3.1054228E-26
  0.1890000     -3.2521823E-26
  0.1895000     -3.1333734E-26
  0.1900000     -2.7494237E-26
  0.1905000     -2.1257603E-26
  0.1910000     -1.3114101E-26
  0.1915000     -3.7479047E-27
  0.1920000      6.0313801E-27
  0.1925000      1.5378652E-26
  0.1930000      2.3516737E-26
  0.1935000      2.9842426E-26
  0.1940000      3.4022468E-26
  0.1945000      3.6066163E-26
  0.1950000      3.6361792E-26
  0.1955000      3.5666531E-26
  0.1960000      3.5043189E-26
  0.1965000      3.5742261E-26
  0.1970000      3.9034135E-26
  0.1975000      4.6002790E-26
  0.1980000      5.7318831E-26
  0.1985000      7.3015388E-26
  0.1990000      9.2294335E-26
  0.1995000      1.1339189E-25
  0.2000000      1.3353156E-25
  0.2005000      1.4898780E-25
  0.2010000      1.5527606E-25
  0.2015000      1.4747483E-25
  0.2020000      1.2067195E-25
  0.2025000      7.0513226E-26
  0.2030000     -6.1828168E-27
  0.2035000     -1.1079294E-25
  0.2040000     -2.4230003E-25
  0.2045000     -3.9681215E-25
  0.2050000     -5.6725607E-25
  0.2055000     -7.4330670E-25
  0.2060000     -9.1160086E-25
  0.2065000     -1.0562664E-24
  0.2070000     -1.1597728E-24
  0.2075000     -1.2040829E-24
  0.2080000     -1.1720542E-24
  0.2085000     -1.0490097E-24
  0.2090000     -8.2437059E-25
  0.2095000     -4.9322680E-25
  0.2100000     -5.7704047E-26
  0.2105000      4.7201113E-25
  0.2110000      1.0771177E-24
  0.2115000      1.7302256E-24
  0.2120000      2.3960329E-24
  0.2125000      3.0326835E-24
  0.2130000      3.5937848E-24
  0.2135000      4.0310090E-24
  0.2140000      4.2971506E-24
  0.2145000      4.3494611E-24
  0.2150000      4.1530478E-24
  0.2155000      3.6840960E-24
  0.2160000      2.9326723E-24
  0.2165000      1.9048662E-24
  0.2170000      6.2407393E-25
  0.2175000     -8.6873692E-25
  0.2180000     -2.5158717E-24
  0.2185000     -4.2448803E-24
  0.2190000     -5.9715891E-24
  0.2195000     -7.6040575E-24
  0.2200000     -9.0472359E-24
  0.2205000     -1.0208061E-23
  0.2210000     -1.1000668E-23
  0.2215000     -1.1351385E-23
  0.2220000     -1.1203204E-23
  0.2225000     -1.0519425E-23
  0.2230000     -9.2862458E-24
  0.2235000     -7.5141297E-24
  0.2240000     -5.2379110E-24
  0.2245000     -2.5156265E-24
  0.2250000      5.7379583E-25
  0.2255000      3.9337926E-24
  0.2260000      7.4541171E-24
  0.2265000      1.1015191E-23
  0.2270000      1.4492552E-23
  0.2275000      1.7761093E-23
  0.2280000      2.0698896E-23
  0.2285000      2.3190431E-23
  0.2290000      2.5129058E-23
  0.2295000      2.6418841E-23
  0.2300000      2.6975749E-23
  0.2305000      2.6728393E-23
  0.2310000      2.5618581E-23
  0.2315000      2.3601868E-23
  0.2320000      2.0648396E-23
  0.2325000      1.6744212E-23
  0.2330000      1.1893201E-23
  0.2335000      6.1196788E-24
  0.2340000     -5.2843884E-25
  0.2345000     -7.9760850E-24
  0.2350000     -1.6117403E-23
  0.2355000     -2.4812443E-23
  0.2360000     -3.3884643E-23
  0.2365000     -4.3119560E-23
  0.2370000     -5.2265307E-23
  0.2375000     -6.1035090E-23
  0.2380000     -6.9112016E-23
  0.2385000     -7.6156329E-23
  0.2390000     -8.1814992E-23
  0.2395000     -8.5733138E-23
  0.2400000     -8.7567145E-23
  0.2405000     -8.6998528E-23
  0.2410000     -8.3747966E-23
  0.2415000     -7.7588660E-23
  0.2420000     -6.8358338E-23
  0.2425000     -5.5969075E-23
  0.2430000     -4.0414584E-23
  0.2435000     -2.1774648E-23
  0.2440000     -2.1664443E-25
  0.2445000      2.4005547E-23
  0.2450000      5.0554801E-23
  0.2455000      7.9015451E-23
  0.2460000      1.0889869E-22
  0.2465000      1.3964765E-22
  0.2470000      1.7064170E-22
  0.2475000      2.0119901E-22
  0.2480000      2.3057766E-22
  0.2485000      2.5797476E-22
  0.2490000      2.8252484E-22
  0.2495000      3.0329811E-22
  0.2500000      3.1930012E-22
  0.2505000      3.2947501E-22
  0.2510000      3.3271366E-22
  0.2515000      3.2786942E-22
  0.2520000      3.1378314E-22
  0.2525000      2.8931844E-22
  0.2530000      2.5340868E-22
  0.2535000      2.0511530E-22
  0.2540000      1.4369600E-22
  0.2545000      6.8681884E-23
  0.2550000     -2.0040786E-23
  0.2555000     -1.2214782E-22
  0.2560000     -2.3679840E-22
  0.2565000     -3.6256567E-22
  0.2570000     -4.9738314E-22
  0.2575000     -6.3851129E-22
  0.2580000     -7.8253058E-22
  0.2585000     -9.2536459E-22
  0.2590000     -1.0623353E-21
  0.2595000     -1.1882526E-21
  0.2600000     -1.2975367E-21
  0.2605000     -1.3843715E-21
  0.2610000     -1.4428842E-21
  0.2615000     -1.4673464E-21
  0.2620000     -1.4523864E-21
  0.2625000     -1.3932093E-21
  0.2630000     -1.2858136E-21
  0.2635000     -1.1271972E-21
  0.2640000     -9.1554465E-22
  0.2645000     -6.5039171E-22
  0.2650000     -3.3275824E-22
  0.2655000      3.4749582E-23
  0.2660000      4.4787226E-22
  0.2665000      9.0066479E-22
  0.2670000      1.3854992E-21
  0.2675000      1.8930988E-21
  0.2680000      2.4126047E-21
  0.2685000      2.9316747E-21
  0.2690000      3.4366107E-21
  0.2695000      3.9125191E-21
  0.2700000      4.3435096E-21
  0.2705000      4.7129326E-21
  0.2710000      5.0036620E-21
  0.2715000      5.1984327E-21
  0.2720000      5.2802392E-21
  0.2725000      5.2327946E-21
  0.2730000      5.0410632E-21
  0.2735000      4.6918549E-21
  0.2740000      4.1744796E-21
  0.2745000      3.4814525E-21
  0.2750000      2.6092271E-21
  0.2755000      1.5589258E-21
  0.2760000      3.3704641E-22
  0.2765000     -1.0439075E-21
  0.2770000     -2.5649102E-21
  0.2775000     -4.2000605E-21
  0.2780000     -5.9164364E-21
  0.2785000     -7.6742085E-21
  0.2790000     -9.4270382E-21
  0.2795000     -1.1122809E-20
  0.2800000     -1.2704692E-20
  0.2805000     -1.4112548E-20
  0.2810000     -1.5284660E-20
  0.2815000     -1.6159762E-20
  0.2820000     -1.6679292E-20
  0.2825000     -1.6789820E-20
  0.2830000     -1.6445548E-20
  0.2835000     -1.5610785E-20
  0.2840000     -1.4262282E-20
  0.2845000     -1.2391309E-20
  0.2850000     -1.0005351E-20
  0.2855000     -7.1293340E-21
  0.2860000     -3.8062510E-21
  0.2865000     -9.7133182E-23
  0.2870000      3.9197072E-21
  0.2875000      8.1501710E-21
  0.2880000      1.2486606E-20
  0.2885000      1.6810751E-20
  0.2890000      2.0997296E-20
  0.2895000      2.4917960E-20
  0.2900000      2.8445940E-20
  0.2905000      3.1460580E-20
  0.2910000      3.3852031E-20
  0.2915000      3.5525756E-20
  0.2920000      3.6406620E-20
  0.2925000      3.6442392E-20
  0.2930000      3.5606468E-20
  0.2935000      3.3899642E-20
  0.2940000      3.1350788E-20
  0.2945000      2.8016407E-20
  0.2950000      2.3978917E-20
  0.2955000      1.9343790E-20
  0.2960000      1.4235554E-20
  0.2965000      8.7927837E-21
  0.2970000      3.1622943E-21
  0.2975000     -2.5072414E-21
  0.2980000     -8.0720113E-21
  0.2985000     -1.3399739E-20
  0.2990000     -1.8376060E-20
  0.2995000     -2.2910231E-20
  0.3000000     -2.6939856E-20
  0.3005000     -3.0434321E-20
  0.3010000     -3.3396723E-20
  0.3015000     -3.5864031E-20
  0.3020000     -3.7905393E-20
  0.3025000     -3.9618539E-20
  0.3030000     -4.1124328E-20
  0.3035000     -4.2559467E-20
  0.3040000     -4.4067776E-20
  0.3045000     -4.5790166E-20
  0.3050000     -4.7853791E-20
  0.3055000     -5.0360785E-20
  0.3060000     -5.3377128E-20
  0.3065000     -5.6922059E-20
  0.3070000     -6.0958746E-20
  0.3075000     -6.5386643E-20
  0.3080000     -7.0036012E-20
  0.3085000     -7.4665225E-20
  0.3090000     -7.8961052E-20
  0.3095000     -8.2542382E-20
  0.3100000     -8.4967482E-20
  0.3105000     -8.5744877E-20
  0.3110000     -8.4347930E-20
  0.3115000     -8.0232810E-20
  0.3120000     -7.2859606E-20
  0.3125000     -6.1716126E-20
  0.3130000     -4.6343834E-20
  0.3135000     -2.6365274E-20
  0.3140000     -1.5120072E-21
  0.3145000      2.8347677E-20
  0.3150000      6.3182272E-20
  0.3155000      1.0277302E-19
  0.3160000      1.4669326E-19
  0.3165000      1.9429225E-19
  0.3170000      2.4468483E-19
  0.3175000      2.9674758E-19
  0.3180000      3.4912285E-19
  0.3185000      4.0023111E-19
  0.3190000      4.4829255E-19
  0.3195000      4.9135852E-19
  0.3200000      5.2735251E-19
  0.3205000      5.5412090E-19
  0.3210000      5.6949312E-19
  0.3215000      5.7135019E-19
  0.3220000      5.5770073E-19
  0.3225000      5.2676195E-19
  0.3230000      4.7704540E-19
  0.3235000      4.0744283E-19
  0.3240000      3.1731116E-19
  0.3245000      2.0655254E-19
  0.3250000      7.5686832E-20
  0.3255000     -7.4087537E-20
  0.3260000     -2.4084715E-19
  0.3265000     -4.2191572E-19
  0.3270000     -6.1385735E-19
  0.3275000     -8.1249345E-19
  0.3280000     -1.0129468E-18
  0.3285000     -1.2097129E-18
  0.3290000     -1.3967600E-18
  0.3295000     -1.5676586E-18
  0.3300000     -1.7157373E-18
  0.3305000     -1.8342645E-18
  0.3310000     -1.9166519E-18
  0.3315000     -1.9566755E-18
  0.3320000     -1.9487072E-18
  0.3325000     -1.8879535E-18
  0.3330000     -1.7706895E-18
  0.3335000     -1.5944832E-18
  0.3340000     -1.3584010E-18
  0.3345000     -1.0631835E-18
  0.3350000     -7.1138556E-19
  0.3355000     -3.0746973E-19
  0.3360000      1.4215218E-19
  0.3365000      6.2913750E-19
  0.3370000      1.1432949E-18
  0.3375000      1.6727347E-18
  0.3380000      2.2040858E-18
  0.3385000      2.7227820E-18
  0.3390000      3.2134077E-18
  0.3395000      3.6601042E-18
  0.3400000      4.0470196E-18
  0.3405000      4.3588001E-18
  0.3410000      4.5810991E-18
  0.3415000      4.7010961E-18
  0.3420000      4.7080052E-18
  0.3425000      4.5935589E-18
  0.3430000      4.3524412E-18
  0.3435000      3.9826621E-18
  0.3440000      3.4858475E-18
  0.3445000      2.8674363E-18
  0.3450000      2.1367659E-18
  0.3455000      1.3070381E-18
  0.3460000      3.9515979E-19
  0.3465000     -5.7854687E-19
  0.3470000     -1.5907626E-18
  0.3475000     -2.6157112E-18
  0.3480000     -3.6258118E-18
  0.3485000     -4.5924294E-18
  0.3490000     -5.4867014E-18
  0.3495000     -6.2804238E-18
  0.3500000     -6.9469639E-18
  0.3505000     -7.4621783E-18
  0.3510000     -7.8052928E-18
  0.3515000     -7.9597349E-18
  0.3520000     -7.9138685E-18
  0.3525000     -7.6616057E-18
  0.3530000     -7.2028803E-18
  0.3535000     -6.5439404E-18
  0.3540000     -5.6974592E-18
  0.3545000     -4.6824345E-18
  0.3550000     -3.5238804E-18
  0.3555000     -2.2523018E-18
  0.3560000     -9.0295635E-19
  0.3565000      4.8507345E-19
  0.3570000      1.8699915E-18
  0.3575000      3.2085480E-18
  0.3580000      4.4574178E-18
  0.3585000      5.5746551E-18
  0.3590000      6.5211847E-18
  0.3595000      7.2622860E-18
  0.3600000      7.7690019E-18
  0.3605000      8.0194474E-18
  0.3610000      7.9999433E-18
  0.3615000      7.7059476E-18
  0.3620000      7.1427220E-18
  0.3625000      6.3257074E-18
  0.3630000      5.2805759E-18
  0.3635000      4.0429267E-18
  0.3640000      2.6576275E-18
  0.3645000      1.1777868E-18
  0.3650000     -3.3662779E-19
  0.3655000     -1.8205002E-18
  0.3660000     -3.2055788E-18
  0.3665000     -4.4227308E-18
  0.3670000     -5.4043957E-18
  0.3675000     -6.0871708E-18
  0.3680000     -6.4144304E-18
  0.3685000     -6.3389166E-18
  0.3690000     -5.8252048E-18
  0.3695000     -4.8519515E-18
  0.3700000     -3.4138300E-18
  0.3705000     -1.5230819E-18
  0.3710000      7.8942251E-19
  0.3715000      3.4736602E-18
  0.3720000      6.4605457E-18
  0.3725000      9.6626673E-18
  0.3730000      1.2975694E-17
  0.3735000      1.6280461E-17
  0.3740000      1.9445752E-17
  0.3745000      2.2331665E-17
  0.3750000      2.4793553E-17
  0.3755000      2.6686455E-17
  0.3760000      2.7869875E-17
  0.3765000      2.8212815E-17
  0.3770000      2.7598893E-17
  0.3775000      2.5931419E-17
  0.3780000      2.3138202E-17
  0.3785000      1.9175997E-17
  0.3790000      1.4034360E-17
  0.3795000      7.7387660E-18
  0.3800000      3.5284459E-19
  0.3805000     -8.0204144E-18
  0.3810000     -1.7238556E-17
  0.3815000     -2.7120772E-17
  0.3820000     -3.7450245E-17
  0.3825000     -4.7977756E-17
  0.3830000     -5.8426513E-17
  0.3835000     -6.8498099E-17
  0.3840000     -7.7879472E-17
  0.3845000     -8.6250804E-17
  0.3850000     -9.3294055E-17
  0.3855000     -9.8701950E-17
  0.3860000     -1.0218722E-16
  0.3865000     -1.0349173E-16
  0.3870000     -1.0239536E-16
  0.3875000     -9.8724244E-17
  0.3880000     -9.2358077E-17
  0.3885000     -8.3236399E-17
  0.3890000     -7.1363459E-17
  0.3895000     -5.6811552E-17
  0.3900000     -3.9722603E-17
  0.3905000     -2.0307964E-17
  0.3910000      1.1536049E-18
  0.3915000      2.4319906E-17
  0.3920000      4.8791083E-17
  0.3925000      7.4117017E-17
  0.3930000      9.9806269E-17
  0.3935000      1.2533642E-16
  0.3940000      1.5016520E-16
  0.3945000      1.7374260E-16
  0.3950000      1.9552321E-16
  0.3955000      2.1497862E-16
  0.3960000      2.3160946E-16
  0.3965000      2.4495687E-16
  0.3970000      2.5461292E-16
  0.3975000      2.6022941E-16
  0.3980000      2.6152568E-16
  0.3985000      2.5829409E-16
  0.3990000      2.5040380E-16
  0.3995000      2.3780233E-16
  0.4000000      2.2051550E-16
  0.4005000      1.9864500E-16
  0.4010000      1.7236431E-16
  0.4015000      1.4191299E-16
  0.4020000      1.0758962E-16
  0.4025000      6.9743938E-17
  0.4030000      2.8768127E-17
  0.4035000     -1.4911990E-17
  0.4040000     -6.0845467E-17
  0.4045000     -1.0856408E-16
  0.4050000     -1.5758914E-16
  0.4055000     -2.0743679E-16
  0.4060000     -2.5762184E-16
  0.4065000     -3.0765925E-16
  0.4070000     -3.5706364E-16
  0.4075000     -4.0534688E-16
  0.4080000     -4.5201341E-16
  0.4085000     -4.9655353E-16
  0.4090000     -5.3843566E-16
  0.4095000     -5.7709721E-16
  0.4100000     -6.1193451E-16
  0.4105000     -6.4229386E-16
  0.4110000     -6.6746270E-16
  0.4115000     -6.8666261E-16
  0.4120000     -6.9904496E-16
  0.4125000     -7.0368988E-16
  0.4130000     -6.9960919E-16
  0.4135000     -6.8575480E-16
  0.4140000     -6.6103214E-16
  0.4145000     -6.2431998E-16
  0.4150000     -5.7449628E-16
  0.4155000     -5.1047166E-16
  0.4160000     -4.3122866E-16
  0.4165000     -3.3586659E-16
  0.4170000     -2.2365283E-16
  0.4175000     -9.4078560E-17
  0.4180000      5.3082489E-17
  0.4185000      2.1771354E-16
  0.4190000      3.9929358E-16
  0.4195000      5.9683821E-16
  0.4200000      8.0884558E-16
  0.4205000      1.0332482E-15
  0.4210000      1.2673729E-15
  0.4215000      1.5079142E-15
  0.4220000      1.7509203E-15
  0.4225000      1.9917959E-15
  0.4230000      2.2253237E-15
  0.4235000      2.4457062E-15
  0.4240000      2.6466296E-15
  0.4245000      2.8213499E-15
  0.4250000      2.9628025E-15
  0.4255000      3.0637343E-15
  0.4260000      3.1168593E-15
  0.4265000      3.1150352E-15
  0.4270000      3.0514546E-15
  0.4275000      2.9198560E-15
  0.4280000      2.7147433E-15
  0.4285000      2.4316128E-15
  0.4290000      2.0671807E-15
  0.4295000      1.6196079E-15
  0.4300000      1.0887129E-15
  0.4305000      4.7616841E-16
  0.4310000     -2.1432860E-16
  0.4315000     -9.7691444E-16
  0.4320000     -1.8034555E-15
  0.4325000     -2.6834906E-15
  0.4330000     -3.6042226E-15
  0.4335000     -4.5505642E-15
  0.4340000     -5.5052432E-15
  0.4345000     -6.4489743E-15
  0.4350000     -7.3606901E-15
  0.4355000     -8.2178408E-15
  0.4360000     -8.9967554E-15
  0.4365000     -9.6730680E-15
  0.4370000     -1.0222197E-14
  0.4375000     -1.0619875E-14
  0.4380000     -1.0842726E-14
  0.4385000     -1.0868864E-14
  0.4390000     -1.0678532E-14
  0.4395000     -1.0254726E-14
  0.4400000     -9.5838347E-15
  0.4405000     -8.6562507E-15
  0.4410000     -7.4669402E-15
  0.4415000     -6.0159702E-15
  0.4420000     -4.3089659E-15
  0.4425000     -2.3574776E-15
  0.4430000     -1.7925369E-16
  0.4435000      2.2016004E-15
  0.4440000      4.7545895E-15
  0.4445000      7.4429361E-15
  0.4450000      1.0223828E-14
  0.4455000      1.3048823E-14
  0.4460000      1.5864407E-14
  0.4465000      1.8612704E-14
  0.4470000      2.1232331E-14
  0.4475000      2.3659423E-14
  0.4480000      2.5828748E-14
  0.4485000      2.7674989E-14
  0.4490000      2.9134078E-14
  0.4495000      3.0144652E-14
  0.4500000      3.0649531E-14
  0.4505000      3.0597236E-14
  0.4510000      2.9943496E-14
  0.4515000      2.8652736E-14
  0.4520000      2.6699458E-14
  0.4525000      2.4069559E-14
  0.4530000      2.0761477E-14
  0.4535000      1.6787165E-14
  0.4540000      1.2172879E-14
  0.4545000      6.9597034E-15
  0.4550000      1.2038048E-15
  0.4555000     -5.0235673E-15
  0.4560000     -1.1636437E-14
  0.4565000     -1.8534755E-14
  0.4570000     -2.5605403E-14
  0.4575000     -3.2723522E-14
  0.4580000     -3.9754180E-14
  0.4585000     -4.6554364E-14
  0.4590000     -5.2975260E-14
  0.4595000     -5.8864826E-14
  0.4600000     -6.4070589E-14
  0.4605000     -6.8442654E-14
  0.4610000     -7.1836878E-14
  0.4615000     -7.4118073E-14
  0.4620000     -7.5163352E-14
  0.4625000     -7.4865366E-14
  0.4630000     -7.3135481E-14
  0.4635000     -6.9906781E-14
  0.4640000     -6.5136834E-14
  0.4645000     -5.8810168E-14
  0.4650000     -5.0940362E-14
  0.4655000     -4.1571682E-14
  0.4660000     -3.0780249E-14
  0.4665000     -1.8674610E-14
  0.4670000     -5.3957456E-15
  0.4675000      8.8835977E-15
  0.4680000      2.3960206E-14
  0.4685000      3.9602385E-14
  0.4690000      5.5552669E-14
  0.4695000      7.1531133E-14
  0.4700000      8.7239413E-14
  0.4705000      1.0236532E-13
  0.4710000      1.1658795E-13
  0.4715000      1.2958336E-13
  0.4720000      1.4103057E-13
  0.4725000      1.5061792E-13
  0.4730000      1.5804967E-13
  0.4735000      1.6305250E-13
  0.4740000      1.6538221E-13
  0.4745000      1.6483009E-13
  0.4750000      1.6122901E-13
  0.4755000      1.5445911E-13
  0.4760000      1.4445286E-13
  0.4765000      1.3119945E-13
  0.4770000      1.1474827E-13
  0.4775000      9.5211558E-14
  0.4780000      7.2765849E-14
  0.4785000      4.7652396E-14
  0.4790000      2.0176303E-14
  0.4795000     -9.2956055E-15
  0.4800000     -4.0338196E-14
  0.4805000     -7.2472695E-14
  0.4810000     -1.0517275E-13
  0.4815000     -1.3787169E-13
  0.4820000     -1.6997089E-13
  0.4825000     -2.0084933E-13
  0.4830000     -2.2987395E-13