  0.0000000E+00  0.0000000E+00
  5.0000002E-04  0.0000000E+00
  1.0000000E-03  0.0000000E+00
  1.5000000E-03  0.0000000E+00
  2.0000001E-03  0.0000000E+00
  2.4999999E-03  0.0000000E+00
  3.0000000E-03  0.0000000E+00
  3.5000001E-03  0.0000000E+00
  4.0000002E-03  0.0000000E+00
  4.4999998E-03  0.0000000E+00
  4.9999999E-03  0.0000000E+00
  5.5000000E-03  0.0000000E+00
  6.0000001E-03  0.0000000E+00
  6.5000001E-03  0.0000000E+00
  7.0000002E-03  0.0000000E+00
  7.4999998E-03  0.0000000E+00
  8.0000004E-03  0.0000000E+00
  8.5000005E-03  0.0000000E+00
  8.9999996E-03  0.0000000E+00
  9.4999997E-03  0.0000000E+00
  9.9999998E-03  0.0000000E+00
  1.0500000E-02  0.0000000E+00
  1.1000000E-02  0.0000000E+00
  1.1500000E-02  0.0000000E+00
  1.2000000E-02  0.0000000E+00
  1.2500000E-02  0.0000000E+00
  1.3000000E-02  0.0000000E+00
  1.3500000E-02  0.0000000E+00
  1.4000000E-02  0.0000000E+00
  1.4500000E-02  0.0000000E+00
  1.5000000E-02  0.0000000E+00
  1.5500000E-02  0.0000000E+00
  1.6000001E-02  0.0000000E+00
  1.6500000E-02  0.0000000E+00
  1.7000001E-02  0.0000000E+00
  1.7500000E-02  0.0000000E+00
  1.7999999E-02  0.0000000E+00
  1.8500000E-02  0.0000000E+00
  1.8999999E-02  0.0000000E+00
  1.9500000E-02  0.0000000E+00
  2.0000000E-02  0.0000000E+00
  2.0500001E-02  0.0000000E+00
  2.1000000E-02  0.0000000E+00
  2.1500001E-02  0.0000000E+00
  2.2000000E-02  0.0000000E+00
  2.2500001E-02  0.0000000E+00
  2.3000000E-02  0.0000000E+00
  2.3499999E-02  0.0000000E+00
  2.4000000E-02  0.0000000E+00
  2.4499999E-02  0.0000000E+00
  2.5000000E-02  0.0000000E+00
  2.5500000E-02  0.0000000E+00
  2.6000001E-02  0.0000000E+00
  2.6500000E-02  0.0000000E+00
  2.7000001E-02  0.0000000E+00
  2.7500000E-02  0.0000000E+00
  2.8000001E-02  0.0000000E+00
  2.8500000E-02  0.0000000E+00
  2.8999999E-02  0.0000000E+00
  2.9500000E-02  0.0000000E+00
  2.9999999E-02  0.0000000E+00
  3.0500000E-02  0.0000000E+00
  3.0999999E-02  0.0000000E+00
  3.1500001E-02  0.0000000E+00
  3.2000002E-02  0.0000000E+00
  3.2499999E-02  0.0000000E+00
  3.3000000E-02  0.0000000E+00
  3.3500001E-02  0.0000000E+00
  3.4000002E-02  0.0000000E+00
  3.4499999E-02  0.0000000E+00
  3.5000000E-02  0.0000000E+00
  3.5500001E-02  0.0000000E+00
  3.5999998E-02  0.0000000E+00
  3.6499999E-02  0.0000000E+00
  3.7000000E-02  0.0000000E+00
  3.7500001E-02  0.0000000E+00
  3.7999999E-02  0.0000000E+00
  3.8500000E-02  0.0000000E+00
  3.9000001E-02  0.0000000E+00
  3.9500002E-02  0.0000000E+00
  3.9999999E-02  0.0000000E+00
  4.0500000E-02  0.0000000E+00
  4.1000001E-02  0.0000000E+00
  4.1499998E-02  0.0000000E+00
  4.1999999E-02  0.0000000E+00
  4.2500000E-02  0.0000000E+00
  4.3000001E-02  0.0000000E+00
  4.3499999E-02  0.0000000E+00
  4.4000000E-02  0.0000000E+00
  4.4500001E-02  0.0000000E+00
  4.5000002E-02  0.0000000E+00
  4.5499999E-02  0.0000000E+00
  4.6000000E-02  0.0000000E+00
  4.6500001E-02  0.0000000E+00
  4.6999998E-02  0.0000000E+00
  4.7499999E-02  0.0000000E+00
  4.8000000E-02  0.0000000E+00
  4.8500001E-02  0.0000000E+00
  4.8999999E-02  0.0000000E+00
  4.9500000E-02  0.0000000E+00
  5.0000001E-02  0.0000000E+00
  5.0500002E-02  0.0000000E+00
  5.0999999E-02  0.0000000E+00
  5.1500000E-02  0.0000000E+00
  5.2000001E-02  0.0000000E+00
  5.2499998E-02  0.0000000E+00
  5.2999999E-02  0.0000000E+00
  5.3500000E-02  0.0000000E+00
  5.4000001E-02  0.0000000E+00
  5.4499999E-02  0.0000000E+00
  5.5000000E-02  0.0000000E+00
  5.5500001E-02  0.0000000E+00
  5.6000002E-02  0.0000000E+00
  5.6499999E-02  0.0000000E+00
  5.7000000E-02  0.0000000E+00
  5.7500001E-02  0.0000000E+00
  5.7999998E-02  0.0000000E+00
  5.8499999E-02  0.0000000E+00
  5.9000000E-02  0.0000000E+00
  5.9500001E-02  0.0000000E+00
  5.9999999E-02  0.0000000E+00
  6.0500000E-02  0.0000000E+00
  6.1000001E-02  0.0000000E+00
  6.1500002E-02  0.0000000E+00
  6.1999999E-02  0.0000000E+00
  6.2500000E-02  0.0000000E+00
  6.3000001E-02  0.0000000E+00
  6.3500002E-02  0.0000000E+00
  6.4000003E-02  0.0000000E+00
  6.4499997E-02  0.0000000E+00
  6.4999998E-02  0.0000000E+00
  6.5499999E-02  0.0000000E+00
  6.6000000E-02  0.0000000E+00
  6.6500001E-02  1.8968038E-38
  6.7000002E-02  4.9557716E-38
  6.7500003E-02  7.9911147E-38
  6.8000004E-02  9.4264585E-38
  6.8499997E-02  9.7166181E-38
  6.8999998E-02  7.7109475E-38
  6.9499999E-02  2.5172771E-38
  7.0000000E-02 -5.5238838E-38
  7.0500001E-02 -1.6313648E-37
  7.1000002E-02 -2.7977769E-37
  7.1500003E-02 -3.8948120E-37
  7.1999997E-02 -5.3293685E-37
  7.2499998E-02 -6.9355794E-37
  7.2999999E-02 -8.1410167E-37
  7.3500000E-02 -8.5685863E-37
  7.4000001E-02 -8.1615066E-37
  7.4500002E-02 -7.4210874E-37
  7.5000003E-02 -6.3970208E-37
  7.5499997E-02 -4.3321960E-37
  7.5999998E-02 -3.3554524E-37
  7.6499999E-02 -5.1335764E-37
  7.7000000E-02 -7.2671634E-37
  7.7500001E-02 -7.8099578E-37
  7.8000002E-02 -6.5176248E-37
  7.8500003E-02 -3.5044506E-37
  7.9000004E-02 -3.3969033E-38
  7.9499997E-02  0.0000000E+00
  7.9999998E-02 -1.8069660E-37
  8.0499999E-02 -5.7937109E-37
  8.1000000E-02 -1.3259056E-36
  8.1500001E-02 -2.1147596E-36
  8.2000002E-02 -2.7198033E-36
  8.2500003E-02 -3.2718541E-36
  8.2999997E-02 -3.8521163E-36
  8.3499998E-02 -4.5247668E-36
  8.3999999E-02 -5.2111830E-36
  8.4500000E-02 -6.2550147E-36
  8.5000001E-02 -7.6873930E-36
  8.5500002E-02 -9.0214836E-36
  8.6000003E-02 -1.0116148E-35
  8.6499996E-02 -1.0657287E-35
  8.6999997E-02 -1.0452718E-35
  8.7499999E-02 -9.7358469E-36
  8.8000000E-02 -8.2635682E-36
  8.8500001E-02 -5.5509801E-36
  8.9000002E-02 -1.4722834E-36
  8.9500003E-02  4.5629686E-36
  9.0000004E-02  1.3387483E-35
  9.0499997E-02  2.4671018E-35
  9.0999998E-02  3.7159360E-35
  9.1499999E-02  4.9480759E-35
  9.2000000E-02  5.9908961E-35
  9.2500001E-02  6.6219632E-35
  9.3000002E-02  6.6065928E-35
  9.3500003E-02  5.7305189E-35
  9.3999997E-02  3.8061023E-35
  9.4499998E-02  7.5360459E-36
  9.4999999E-02 -3.4368103E-35
  9.5500000E-02 -8.7656057E-35
  9.6000001E-02 -1.5068863E-34
  9.6500002E-02 -2.1942368E-34
  9.7000003E-02 -2.8787246E-34
  9.7499996E-02 -3.4819789E-34
  9.7999997E-02 -3.9102089E-34
  9.8499998E-02 -4.0594963E-34
  9.8999999E-02 -3.8222064E-34
  9.9500000E-02 -3.0976717E-34
  0.1000000     -1.8068064E-34
  0.1005000      9.5071865E-36
  0.1010000      2.6051095E-34
  0.1015000      5.6596779E-34
  0.1020000      9.1245894E-34
  0.1025000      1.2789687E-33
  0.1030000      1.6369082E-33
  0.1035000      1.9508798E-33
  0.1040000      2.1802744E-33
  0.1045000      2.2817701E-33
  0.1050000      2.2126236E-33
  0.1055000      1.9346916E-33
  0.1060000      1.4189638E-33
  0.1065000      6.5018356E-34
  0.1070000     -3.6884634E-34
  0.1075000     -1.6137965E-33
  0.1080000     -3.0367025E-33
  0.1085000     -4.5656902E-33
  0.1090000     -6.1069172E-33
  0.1095000     -7.5489329E-33
  0.1100000     -8.7693194E-33
  0.1105000     -9.6432700E-33
  0.1110000     -1.0053448E-32
  0.1115000     -9.9001288E-33
  0.1120000     -9.1104375E-33
  0.1125000     -7.6453947E-33
  0.1130000     -5.5036429E-33
  0.1135000     -2.7208883E-33
  0.1140000      6.3531998E-34
  0.1145000      4.4751606E-33
  0.1150000      8.6993804E-33
  0.1155000      1.3213562E-32
  0.1160000      1.7941109E-32
  0.1165000      2.2831664E-32
  0.1170000      2.7861732E-32
  0.1175000      3.3024582E-32
  0.1180000      3.8307389E-32
  0.1185000      4.3655110E-32
  0.1190000      4.8922993E-32
  0.1195000      5.3821702E-32
  0.1200000      5.7861905E-32
  0.1205000      6.0307668E-32
  0.1210000      6.0149288E-32
  0.1215000      5.6107521E-32
  0.1220000      4.6679695E-32
  0.1225000      3.0236507E-32
  0.1230000      5.1737000E-33
  0.1235000     -2.9883035E-32
  0.1240000     -7.5828566E-32
  0.1245000     -1.3280036E-31
  0.1250000     -1.9989648E-31
  0.1255000     -2.7491994E-31
  0.1260000     -3.5418357E-31
  0.1265000     -4.3241298E-31
  0.1270000     -5.0277911E-31
  0.1275000     -5.5708854E-31
  0.1280000     -5.8614643E-31
  0.1285000     -5.8029525E-31
  0.1290000     -5.3011353E-31
  0.1295000     -4.2724071E-31
  0.1300000     -2.6528343E-31
  0.1305000     -4.0736598E-32
  0.1310000      2.4614997E-31
  0.1315000      5.9063259E-31
  0.1320000      9.8293502E-31
  0.1325000      1.4079688E-30
  0.1330000      1.8453597E-30
  0.1335000      2.2698017E-30
  0.1340000      2.6517490E-30
  0.1345000      2.9584263E-30
  0.1350000      3.1551280E-30
  0.1355000      3.2067655E-30
  0.1360000      3.0796210E-30
  0.1365000      2.7432585E-30
  0.1370000      2.1725502E-30
  0.1375000      1.3497980E-30
  0.1380000      2.6692430E-31
  0.1385000     -1.0723164E-30
  0.1390000     -2.6501321E-30
  0.1395000     -4.4325718E-30
  0.1400000     -6.3676262E-30
  0.1405000     -8.3836919E-30
  0.1410000     -1.0388663E-29
  0.1415000     -1.2269917E-29
  0.1420000     -1.3895554E-29
  0.1425000     -1.5117208E-29
  0.1430000     -1.5774761E-29
  0.1435000     -1.5703198E-29
  0.1440000     -1.4741710E-29
  0.1445000     -1.2744936E-29
  0.1450000     -9.5960137E-30
  0.1455000     -5.2208876E-30
  0.1460000      3.9706633E-31
  0.1465000      7.2031811E-30
  0.1470000      1.5059674E-29
  0.1475000      2.3737324E-29
  0.1480000      3.2911943E-29
  0.1485000      4.2166774E-29
  0.1490000      5.1001724E-29
  0.1495000      5.8849757E-29
  0.1500000      6.5100188E-29
  0.1505000      6.9128108E-29
  0.1510000      7.0328474E-29
  0.1515000      6.8152829E-29
  0.1520000      6.2146413E-29
  0.1525000      5.1983082E-29
  0.1530000      3.7495533E-29
  0.1535000      1.8698896E-29
  0.1540000     -4.1937659E-30
  0.1545000     -3.0764633E-29
  0.1550000     -6.0392896E-29
  0.1555000     -9.2263780E-29
  0.1560000     -1.2538313E-28
  0.1565000     -1.5859514E-28
  0.1570000     -1.9060119E-28
  0.1575000     -2.1997758E-28
  0.1580000     -2.4519171E-28
  0.1585000     -2.6461680E-28
  0.1590000     -2.7654743E-28
  0.1595000     -2.7921957E-28
  0.1600000     -2.7084083E-28
  0.1605000     -2.4963699E-28
  0.1610000     -2.1392077E-28
  0.1615000     -1.6218957E-28
  0.1620000     -9.3255532E-29
  0.1625000     -6.4086658E-30
  0.1630000      9.8392192E-29
  0.1635000      2.2030744E-28
  0.1640000      3.5739980E-28
  0.1645000      5.0643243E-28
  0.1650000      6.6270556E-28
  0.1655000      8.1995996E-28
  0.1660000      9.7037383E-28
  0.1665000      1.1046787E-27
  0.1670000      1.2124144E-27
  0.1675000      1.2823333E-27
  0.1680000      1.3029541E-27
  0.1685000      1.2632524E-27
  0.1690000      1.1534555E-27
  0.1695000      9.6590173E-28
  0.1700000      6.9590965E-28
  0.1705000      3.4258829E-28
  0.1710000     -9.0475163E-29
  0.1715000     -5.9472322E-28
  0.1720000     -1.1563909E-27
  0.1725000     -1.7565667E-27
  0.1730000     -2.3715859E-27
  0.1735000     -2.9737533E-27
  0.1740000     -3.5323762E-27
  0.1745000     -4.0150597E-27
  0.1750000     -4.3891936E-27
  0.1755000     -4.6235430E-27
  0.1760000     -4.6898413E-27
  0.1765000     -4.5642891E-27
  0.1770000     -4.2288668E-27
  0.1775000     -3.6723917E-27
  0.1780000     -2.8912725E-27
  0.1785000     -1.8899484E-27
  0.1790000     -6.8103367E-28
  0.1795000      7.1479084E-28
  0.1800000      2.2690600E-27
  0.1805000      3.9458977E-27
  0.1810000      5.7024039E-27
  0.1815000      7.4889871E-27
  0.1820000      9.2496314E-27
  0.1825000      1.0922084E-26
  0.1830000      1.2438058E-26
  0.1835000      1.3723559E-26
  0.1840000      1.4699529E-26
  0.1845000      1.5282986E-26
  0.1850000      1.5388887E-26
  0.1855000      1.4932929E-26
  0.1860000      1.3835400E-26
  0.1865000      1.2026136E-26
  0.1870000      9.4505513E-27
  0.1875000      6.0765016E-27
  0.1880000      1.9016262E-27
  0.1885000     -3.0393264E-27
  0.1890000     -8.6678626E-27
  0.1895000     -1.4856494E-26
  0.1900000     -2.1425662E-26
  0.1905000     -2.8143534E-26
  0.1910000     -3.4729324E-26
  0.1915000     -4.0860533E-26
  0.1920000     -4.6184275E-26
  0.1925000     -5.0332515E-26
  0.1930000     -5.2940739E-26
  0.1935000     -5.3669141E-26
  0.1940000     -5.2225162E-26
  0.1945000     -4.8385933E-26
  0.1950000     -4.2018978E-26
  0.1955000     -3.3099599E-26
  0.1960000     -2.1723283E-26
  0.1965000     -8.1119830E-27
  0.1970000      7.3867410E-27
  0.1975000      2.4308085E-26
  0.1980000      4.2085689E-26
  0.1985000      6.0073946E-26
  0.1990000      7.7575583E-26
  0.1995000      9.3872741E-26
  0.2000000      1.0825951E-25
  0.2005000      1.2007353E-25
  0.2010000      1.2872468E-25
  0.2015000      1.3371884E-25
  0.2020000      1.3467536E-25
  0.2025000      1.3133751E-25
  0.2030000      1.2357585E-25
  0.2035000      1.1138516E-25
  0.2040000      9.4876523E-26
  0.2045000      7.4266275E-26
  0.2050000      4.9864169E-26
  0.2055000      2.2062839E-26
  0.2060000     -8.6693433E-27
  0.2065000     -4.1790936E-26
  0.2070000     -7.6685175E-26
  0.2075000     -1.1265312E-25
  0.2080000     -1.4890416E-25
  0.2085000     -1.8454666E-25
  0.2090000     -2.1858162E-25
  0.2095000     -2.4990399E-25
  0.2100000     -2.7731491E-25
  0.2105000     -2.9954836E-25
  0.2110000     -3.1531421E-25
  0.2115000     -3.2335808E-25
  0.2120000     -3.2253655E-25
  0.2125000     -3.1190397E-25
  0.2130000     -2.9080460E-25
  0.2135000     -2.5896223E-25
  0.2140000     -2.1655815E-25
  0.2145000     -1.6428736E-25
  0.2150000     -1.0338343E-25
  0.2155000     -3.5603946E-26
  0.2160000      3.6828905E-26
  0.2165000      1.1133452E-25
  0.2170000      1.8512453E-25
  0.2175000      2.5539088E-25
  0.2180000      3.1951874E-25
  0.2185000      3.7530908E-25
  0.2190000      4.2119044E-25
  0.2195000      4.5639888E-25
  0.2200000      4.8110482E-25
  0.2205000      4.9646680E-25
  0.2210000      5.0459734E-25
  0.2215000      5.0843126E-25
  0.2220000      5.1149564E-25
  0.2225000      5.1758875E-25
  0.2230000      5.3038417E-25
  0.2235000      5.5298716E-25
  0.2240000      5.8747650E-25
  0.2245000      6.3446885E-25
  0.2250000      6.9274940E-25
  0.2255000      7.5900706E-25
  0.2260000      8.2771161E-25
  0.2265000      8.9116058E-25
  0.2270000      9.3971231E-25
  0.2275000      9.6220599E-25
  0.2280000      9.4655844E-25
  0.2285000      8.8050731E-25
  0.2290000      7.5245912E-25
  0.2295000      5.5238802E-25
  0.2300000      2.7272381E-25
  0.2305000     -9.0838942E-26
  0.2310000     -5.3867485E-25
  0.2315000     -1.0667539E-24
  0.2320000     -1.6664079E-24
  0.2325000     -2.3243587E-24
  0.2330000     -3.0230114E-24
  0.2335000     -3.7409985E-24
  0.2340000     -4.4539312E-24
  0.2345000     -5.1353034E-24
  0.2350000     -5.7574761E-24
  0.2355000     -6.2926646E-24
  0.2360000     -6.7138516E-24
  0.2365000     -6.9955530E-24
  0.2370000     -7.1143886E-24
  0.2375000     -7.0494259E-24
  0.2380000     -6.7822995E-24
  0.2385000     -6.2971181E-24
  0.2390000     -5.5802482E-24
  0.2395000     -4.6200408E-24
  0.2400000     -3.4066023E-24
  0.2405000     -1.9317409E-24
  0.2410000     -1.8920348E-25
  0.2415000      1.8247027E-24
  0.2420000      4.1100426E-24
  0.2425000      6.6616684E-24
  0.2430000      9.4671686E-24
  0.2435000      1.2504409E-23
  0.2440000      1.5738805E-23
  0.2445000      1.9120508E-23
  0.2450000      2.2581751E-23
  0.2455000      2.6034593E-23
  0.2460000      2.9369424E-23
  0.2465000      3.2454444E-23
  0.2470000      3.5136445E-23
  0.2475000      3.7243026E-23
  0.2480000      3.8586532E-23
  0.2485000      3.8969606E-23
  0.2490000      3.8192423E-23
  0.2495000      3.6061385E-23
  0.2500000      3.2399063E-23
  0.2505000      2.7054994E-23
  0.2510000      1.9916841E-23
  0.2515000      1.0921466E-23
  0.2520000      6.5314934E-26
  0.2525000     -1.2586476E-23
  0.2530000     -2.6892713E-23
  0.2535000     -4.2631063E-23
  0.2540000     -5.9495669E-23
  0.2545000     -7.7097730E-23
  0.2550000     -9.4969159E-23
  0.2555000     -1.1256943E-22
  0.2560000     -1.2929559E-22
  0.2565000     -1.4449501E-22
  0.2570000     -1.5748085E-22
  0.2575000     -1.6754971E-22
  0.2580000     -1.7400109E-22
  0.2585000     -1.7615809E-22
  0.2590000     -1.7338930E-22
  0.2595000     -1.6513107E-22
  0.2600000     -1.5090984E-22
  0.2605000     -1.3036445E-22
  0.2610000     -1.0326779E-22
  0.2615000     -6.9547618E-23
  0.2620000     -2.9306198E-23
  0.2625000      1.7161674E-23
  0.2630000      6.9352833E-23
  0.2635000      1.2654250E-22
  0.2640000      1.8777451E-22
  0.2645000      2.5185567E-22
  0.2650000      3.1735561E-22
  0.2655000      3.8261284E-22
  0.2660000      4.4574842E-22
  0.2665000      5.0468867E-22
  0.2670000      5.5719672E-22
  0.2675000      6.0091511E-22
  0.2680000      6.3341921E-22
  0.2685000      6.5228159E-22
  0.2690000      6.5514679E-22
  0.2695000      6.3981577E-22
  0.2700000      6.0433783E-22
  0.2705000      5.4710798E-22
  0.2710000      4.6696673E-22
  0.2715000      3.6329784E-22
  0.2720000      2.3612119E-22
  0.2725000      8.6175853E-23
  0.2730000     -8.5011772E-23
  0.2735000     -2.7507832E-22
  0.2740000     -4.8079681E-22
  0.2745000     -6.9807703E-22
  0.2750000     -9.2199457E-22
  0.2755000     -1.1468513E-21
  0.2760000     -1.3662681E-21
  0.2765000     -1.5733094E-21
  0.2770000     -1.7606376E-21
  0.2775000     -1.9206934E-21
  0.2780000     -2.0459006E-21
  0.2785000     -2.1288889E-21
  0.2790000     -2.1627291E-21
  0.2795000     -2.1411746E-21
  0.2800000     -2.0589002E-21
  0.2805000     -1.9117368E-21
  0.2810000     -1.6968865E-21
  0.2815000     -1.4131247E-21
  0.2820000     -1.0609680E-21
  0.2825000     -6.4281259E-22
  0.2830000     -1.6303585E-22
  0.2835000      3.7194446E-22
  0.2840000      9.5365524E-22
  0.2845000      1.5716004E-21
  0.2850000      2.2133427E-21
  0.2855000      2.8646377E-21
  0.2860000      3.5096203E-21
  0.2865000      4.1310410E-21
  0.2870000      4.7105569E-21
  0.2875000      5.2290756E-21
  0.2880000      5.6671412E-21
  0.2885000      6.0053745E-21
  0.2890000      6.2249521E-21
  0.2895000      6.3081266E-21
  0.2900000      6.2387678E-21
  0.2905000      6.0029333E-21
  0.2910000      5.5894472E-21
  0.2915000      4.9904719E-21
  0.2920000      4.2020694E-21
  0.2925000      3.2247250E-21
  0.2930000      2.0638183E-21
  0.2935000      7.3002642E-22
  0.2940000     -7.6037043E-22
  0.2945000     -2.3852890E-21
  0.2950000     -4.1167822E-21
  0.2955000     -5.9211285E-21
  0.2960000     -7.7590899E-21
  0.2965000     -9.5863464E-21
  0.2970000     -1.1354127E-20
  0.2975000     -1.3010047E-20
  0.2980000     -1.4499127E-20
  0.2985000     -1.5765020E-20
  0.2990000     -1.6751409E-20
  0.2995000     -1.7403559E-20
  0.3000000     -1.7670006E-20
  0.3005000     -1.7504341E-20
  0.3010000     -1.6867037E-20
  0.3015000     -1.5727280E-20
  0.3020000     -1.4064759E-20
  0.3025000     -1.1871330E-20
  0.3030000     -9.1525144E-21
  0.3035000     -5.9287270E-21
  0.3040000     -2.2362378E-21
  0.3045000      1.8722559E-21
  0.3050000      6.3274854E-21
  0.3055000      1.1043913E-20
  0.3060000      1.5920548E-20
  0.3065000      2.0842307E-20
  0.3070000      2.5681895E-20
  0.3075000      3.0302237E-20
  0.3080000      3.4559383E-20
  0.3085000      3.8305917E-20
  0.3090000      4.1394725E-20
  0.3095000      4.3683127E-20
  0.3100000      4.5037209E-20
  0.3105000      4.5336302E-20
  0.3110000      4.4477424E-20
  0.3115000      4.2379649E-20
  0.3120000      3.8988176E-20
  0.3125000      3.4278048E-20
  0.3130000      2.8257352E-20
  0.3135000      2.0969762E-20
  0.3140000      1.2496349E-20
  0.3145000      2.9565572E-21
  0.3150000     -7.4917538E-21
  0.3155000     -1.8653238E-20
  0.3160000     -3.0297034E-20
  0.3165000     -4.2159829E-20
  0.3170000     -5.3949925E-20
  0.3175000     -6.5352399E-20
  0.3180000     -7.6035185E-20
  0.3185000     -8.5656162E-20
  0.3190000     -9.3871073E-20
  0.3195000     -1.0034216E-19
  0.3200000     -1.0474741E-19
  0.3205000     -1.0679027E-19
  0.3210000     -1.0620954E-19
  0.3215000     -1.0278942E-19
  0.3220000     -9.6369268E-20
  0.3225000     -8.6853060E-20
  0.3230000     -7.4217908E-20
  0.3235000     -5.8521749E-20
  0.3240000     -3.9909590E-20
  0.3245000     -1.8618123E-20
  0.3250000      5.0216548E-21
  0.3255000      3.0584069E-20
  0.3260000      5.7550981E-20
  0.3265000      8.5316824E-20
  0.3270000      1.1319666E-19
  0.3275000      1.4043733E-19
  0.3280000      1.6623173E-19
  0.3285000      1.8973635E-19
  0.3290000      2.1009160E-19
  0.3295000      2.2644493E-19
  0.3300000      2.3797609E-19
  0.3305000      2.4392411E-19
  0.3310000      2.4361552E-19
  0.3315000      2.3649257E-19
  0.3320000      2.2214111E-19
  0.3325000      2.0031687E-19
  0.3330000      1.7096902E-19
  0.3335000      1.3426046E-19
  0.3340000      9.0583250E-20
  0.3345000      4.0568643E-20
  0.3350000     -1.4909428E-20
  0.3355000     -7.4737920E-20
  0.3360000     -1.3757602E-19
  0.3365000     -2.0187466E-19
  0.3370000     -2.6590424E-19
  0.3375000     -3.2779040E-19
  0.3380000     -3.8555741E-19
  0.3385000     -4.3717865E-19
  0.3390000     -4.8063267E-19
  0.3395000     -5.1396454E-19
  0.3400000     -5.3534928E-19
  0.3405000     -5.4315765E-19
  0.3410000     -5.3602038E-19
  0.3415000     -5.1289039E-19
  0.3420000     -4.7309990E-19
  0.3425000     -4.1641066E-19
  0.3430000     -3.4305473E-19
  0.3435000     -2.5376518E-19
  0.3440000     -1.4979356E-19
  0.3445000     -3.2913526E-20
  0.3450000      9.4590365E-20
  0.3455000      2.2994977E-19
  0.3460000      3.6995565E-19
  0.3465000      5.1101678E-19
  0.3470000      6.4923390E-19
  0.3475000      7.8048689E-19
  0.3480000      9.0053447E-19
  0.3485000      1.0051244E-18
  0.3490000      1.0901106E-18
  0.3495000      1.1515762E-18
  0.3500000      1.1859578E-18
  0.3505000      1.1901678E-18
  0.3510000      1.1617134E-18
  0.3515000      1.0988063E-18
  0.3520000      1.0004600E-18
  0.3525000      8.6657462E-19
  0.3530000      6.9800152E-19
  0.3535000      4.9658811E-19
  0.3540000      2.6519943E-19
  0.3545000      7.7141749E-21
  0.3550000     -2.7100588E-19
  0.3555000     -5.6517327E-19
  0.3560000     -8.6816131E-19
  0.3565000     -1.1726175E-18
  0.3570000     -1.4706041E-18
  0.3575000     -1.7537619E-18
  0.3580000     -2.0134970E-18
  0.3585000     -2.2411890E-18
  0.3590000     -2.4284095E-18
  0.3595000     -2.5671552E-18
  0.3600000     -2.6500842E-18
  0.3605000     -2.6707532E-18
  0.3610000     -2.6238471E-18
  0.3615000     -2.5053952E-18
  0.3620000     -2.3129705E-18
  0.3625000     -2.0458594E-18
  0.3630000     -1.7052017E-18
  0.3635000     -1.2940902E-18
  0.3640000     -8.1762776E-19
  0.3645000     -2.8293754E-19
  0.3650000      3.0088090E-19
  0.3655000      9.2284736E-19
  0.3660000      1.5702544E-18
  0.3665000      2.2288719E-18
  0.3670000      2.8832065E-18
  0.3675000      3.5168088E-18
  0.3680000      4.1126250E-18
  0.3685000      4.6533844E-18
  0.3690000      5.1220169E-18
  0.3695000      5.5020907E-18
  0.3700000      5.7782582E-18
  0.3705000      5.9366988E-18
  0.3710000      5.9655463E-18
  0.3715000      5.8552947E-18
  0.3720000      5.5991636E-18
  0.3725000      5.1934134E-18
  0.3730000      4.6376026E-18
  0.3735000      3.9347753E-18
  0.3740000      3.0915755E-18
  0.3745000      2.1182733E-18
  0.3750000      1.0287138E-18
  0.3755000     -1.5982969E-19
  0.3760000     -1.4268850E-18
  0.3765000     -2.7490895E-18
  0.3770000     -4.1005829E-18
  0.3775000     -5.4534732E-18
  0.3780000     -6.7783539E-18
  0.3785000     -8.0448815E-18
  0.3790000     -9.2223872E-18
  0.3795000     -1.0280512E-17
  0.3800000     -1.1189855E-17
  0.3805000     -1.1922624E-17
  0.3810000     -1.2453253E-17
  0.3815000     -1.2759023E-17
  0.3820000     -1.2820606E-17
  0.3825000     -1.2622573E-17
  0.3830000     -1.2153840E-17
  0.3835000     -1.1408038E-17
  0.3840000     -1.0383818E-17
  0.3845000     -9.0850578E-18
  0.3850000     -7.5209991E-18
  0.3855000     -5.7062906E-18
  0.3860000     -3.6609525E-18
  0.3865000     -1.4102438E-18
  0.3870000      1.0155454E-18
  0.3875000      3.5813777E-18
  0.3880000      6.2478498E-18
  0.3885000      8.9716324E-18
  0.3890000      1.1705984E-17
  0.3895000      1.4401353E-17
  0.3900000      1.7006019E-17
  0.3905000      1.9466821E-17
  0.3910000      2.1729917E-17
  0.3915000      2.3741604E-17
  0.3920000      2.5449189E-17
  0.3925000      2.6801898E-17
  0.3930000      2.7751820E-17
  0.3935000      2.8254885E-17
  0.3940000      2.8271819E-17
  0.3945000      2.7769115E-17
  0.3950000      2.6720000E-17
  0.3955000      2.5105327E-17
  0.3960000      2.2914448E-17
  0.3965000      2.0145990E-17
  0.3970000      1.6808566E-17
  0.3975000      1.2921392E-17
  0.3980000      8.5147160E-18
  0.3985000      3.6300891E-18
  0.3990000     -1.6794644E-18
  0.3995000     -7.3495436E-18
  0.4000000     -1.3304588E-17
  0.4005000     -1.9458453E-17
  0.4010000     -2.5715082E-17
  0.4015000     -3.1969432E-17
  0.4020000     -3.8108730E-17
  0.4025000     -4.4013784E-17
  0.4030000     -4.9560669E-17
  0.4035000     -5.4622521E-17
  0.4040000     -5.9071608E-17
  0.4045000     -6.2781573E-17
  0.4050000     -6.5629694E-17
  0.4055000     -6.7499348E-17
  0.4060000     -6.8282608E-17
  0.4065000     -6.7882842E-17
  0.4070000     -6.6217264E-17
  0.4075000     -6.3219522E-17
  0.4080000     -5.8842049E-17
  0.4085000     -5.3058455E-17
  0.4090000     -4.5865732E-17
  0.4095000     -3.7286053E-17
  0.4100000     -2.7368372E-17
  0.4105000     -1.6189754E-17
  0.4110000     -3.8561390E-18
  0.4115000      9.4972130E-18
  0.4120000      2.3705737E-17
  0.4125000      3.8576266E-17
  0.4130000      5.3888259E-17
  0.4135000      6.9395570E-17
  0.4140000      8.4828808E-17
  0.4145000      9.9898596E-17
  0.4150000      1.1429925E-16
  0.4155000      1.2771321E-16
  0.4160000      1.3981604E-16
  0.4165000      1.5028175E-16
  0.4170000      1.5878908E-16
  0.4175000      1.6502796E-16
  0.4180000      1.6870625E-16
  0.4185000      1.6955699E-16
  0.4190000      1.6734548E-16
  0.4195000      1.6187643E-16
  0.4200000      1.5300092E-16
  0.4205000      1.4062306E-16
  0.4210000      1.2470601E-16
  0.4215000      1.0527745E-16
  0.4220000      8.2434173E-17
  0.4225000      5.6345439E-17
  0.4230000      2.7255204E-17
  0.4235000     -4.5166899E-18
  0.4240000     -3.8575138E-17
  0.4245000     -7.4451880E-17
  0.4250000     -1.1160918E-16
  0.4255000     -1.4944499E-16
  0.4260000     -1.8730007E-16
  0.4265000     -2.2446678E-16
  0.4270000     -2.6019960E-16
  0.4275000     -2.9372673E-16
  0.4280000     -3.2426298E-16
  0.4285000     -3.5102416E-16
  0.4290000     -3.7324187E-16
  0.4295000     -3.9017980E-16
  0.4300000     -4.0114980E-16
  0.4305000     -4.0552785E-16
  0.4310000     -4.0277094E-16
  0.4315000     -3.9243208E-16
  0.4320000     -3.7417548E-16
  0.4325000     -3.4778995E-16
  0.4330000     -3.1320089E-16
  0.4335000     -2.7048091E-16
  0.4340000     -2.1985824E-16
  0.4345000     -1.6172258E-16
  0.4350000     -9.6627580E-17
  0.4355000     -2.5292207E-17
  0.4360000      5.1401791E-17
  0.4365000      1.3241633E-16
  0.4370000      2.1656492E-16
  0.4375000      3.0252518E-16
  0.4380000      3.8885348E-16
  0.4385000      4.7400387E-16
  0.4390000      5.5634924E-16
  0.4395000      6.3420538E-16
  0.4400000      7.0585828E-16
  0.4405000      7.6959296E-16
  0.4410000      8.2372477E-16
  0.4415000      8.6663244E-16
  0.4420000      8.9679094E-16
  0.4425000      9.1280590E-16
  0.4430000      9.1344848E-16
  0.4435000      8.9768774E-16
  0.4440000      8.6472360E-16
  0.4445000      8.1401592E-16
  0.4450000      7.4531202E-16
  0.4455000      6.5867077E-16
  0.4460000      5.5448254E-16
  0.4465000      4.3348401E-16
  0.4470000      2.9676681E-16
  0.4475000      1.4578071E-16
  0.4480000     -1.7668121E-17
  0.4485000     -1.9142771E-16
  0.4490000     -3.7301809E-16
  0.4495000     -5.5965367E-16
  0.4500000     -7.4827690E-16
  0.4505000     -9.3559723E-16
  0.4510000     -1.1181355E-15
  0.4515000     -1.2922774E-15
  0.4520000     -1.4543306E-15
  0.4525000     -1.6005890E-15
  0.4530000     -1.7274014E-15
  0.4535000     -1.8312406E-15
  0.4540000     -1.9087777E-15
  0.4545000     -1.9569568E-15
  0.4550000     -1.9730667E-15
  0.4555000     -1.9548146E-15
  0.4560000     -1.9003936E-15
  0.4565000     -1.8085449E-15
  0.4570000     -1.6786161E-15
  0.4575000     -1.5106106E-15
  0.4580000     -1.3052275E-15
  0.4585000     -1.0638901E-15
  0.4590000     -7.8876338E-16
  0.4595000     -4.8276103E-16
  0.4600000     -1.4953591E-16
  0.4605000      2.0654292E-16
  0.4610000      5.8042509E-16
  0.4615000      9.6643156E-16
  0.4620000      1.3583214E-15
  0.4625000      1.7493730E-15
  0.4630000      2.1324781E-15
  0.4635000      2.5002481E-15
  0.4640000      2.8451328E-15
  0.4645000      3.1595491E-15
  0.4650000      3.4360186E-15
  0.4655000      3.6673109E-15
  0.4660000      3.8465918E-15
  0.4665000      3.9675692E-15
  0.4670000      4.0246474E-15
  0.4675000      4.0130672E-15
  0.4680000      3.9290445E-15
  0.4685000      3.7698976E-15
  0.4690000      3.5341645E-15
  0.4695000      3.2217006E-15
  0.4700000      2.8337587E-15
  0.4705000      2.3730500E-15
  0.4710000      1.8437762E-15
  0.4715000      1.2516404E-15
  0.4720000      6.0382893E-16
  0.4725000     -9.1035819E-17
  0.4730000     -8.2297568E-16
  0.4735000     -1.5807621E-15
  0.4740000     -2.3520557E-15
  0.4745000     -3.1235752E-15
  0.4750000     -3.8812930E-15
  0.4755000     -4.6106570E-15
  0.4760000     -5.2968367E-15
  0.4765000     -5.9249845E-15
  0.4770000     -6.4805165E-15
  0.4775000     -6.9494022E-15
  0.4780000     -7.3184561E-15
  0.4785000     -7.5756399E-15
  0.4790000     -7.7103410E-15
  0.4795000     -7.7136597E-15
  0.4800000     -7.5786604E-15
  0.4805000     -7.3006083E-15
  0.4810000     -6.8771748E-15
  0.4815000     -6.3086040E-15
  0.4820000     -5.5978408E-15
  0.4825000     -4.7506160E-15
  0.4830000     -3.7754783E-15