  0.0000000E+00  0.0000000E+00
  5.0000002E-04  0.0000000E+00
  1.0000000E-03  0.0000000E+00
  1.5000000E-03  0.0000000E+00
  2.0000001E-03  0.0000000E+00
  2.4999999E-03  0.0000000E+00
  3.0000000E-03  0.0000000E+00
  3.5000001E-03  0.0000000E+00
  4.0000002E-03  0.0000000E+00
  4.4999998E-03  0.0000000E+00
  4.9999999E-03  0.0000000E+00
  5.5000000E-03  0.0000000E+00
  6.0000001E-03  0.0000000E+00
  6.5000001E-03  0.0000000E+00
  7.0000002E-03  0.0000000E+00
  7.4999998E-03  0.0000000E+00
  8.0000004E-03  0.0000000E+00
  8.5000005E-03  0.0000000E+00
  8.9999996E-03  0.0000000E+00
  9.4999997E-03  0.0000000E+00
  9.9999998E-03  0.0000000E+00
  1.0500000E-02  0.0000000E+00
  1.1000000E-02  0.0000000E+00
  1.1500000E-02  0.0000000E+00
  1.2000000E-02  0.0000000E+00
  1.2500000E-02  0.0000000E+00
  1.3000000E-02  0.0000000E+00
  1.3500000E-02  0.0000000E+00
  1.4000000E-02  0.0000000E+00
  1.4500000E-02  0.0000000E+00
  1.5000000E-02  0.0000000E+00
  1.5500000E-02  0.0000000E+00
  1.6000001E-02  0.0000000E+00
  1.6500000E-02  0.0000000E+00
  1.7000001E-02  0.0000000E+00
  1.7500000E-02  0.0000000E+00
  1.7999999E-02  0.0000000E+00
  1.8500000E-02  0.0000000E+00
  1.8999999E-02  0.0000000E+00
  1.9500000E-02  0.0000000E+00
  2.0000000E-02  0.0000000E+00
  2.0500001E-02  0.0000000E+00
  2.1000000E-02  0.0000000E+00
  2.1500001E-02  0.0000000E+00
  2.2000000E-02  0.0000000E+00
  2.2500001E-02  0.0000000E+00
  2.3000000E-02  0.0000000E+00
  2.3499999E-02  0.0000000E+00
  2.4000000E-02  0.0000000E+00
  2.4499999E-02  0.0000000E+00
  2.5000000E-02  0.0000000E+00
  2.5500000E-02  0.0000000E+00
  2.6000001E-02  0.0000000E+00
  2.6500000E-02  0.0000000E+00
  2.7000001E-02  0.0000000E+00
  2.7500000E-02  0.0000000E+00
  2.8000001E-02  0.0000000E+00
  2.8500000E-02  0.0000000E+00
  2.8999999E-02  0.0000000E+00
  2.9500000E-02  0.0000000E+00
  2.9999999E-02  0.0000000E+00
  3.0500000E-02  0.0000000E+00
  3.0999999E-02  0.0000000E+00
  3.1500001E-02  0.0000000E+00
  3.2000002E-02  0.0000000E+00
  3.2499999E-02  0.0000000E+00
  3.3000000E-02  0.0000000E+00
  3.3500001E-02  0.0000000E+00
  3.4000002E-02  0.0000000E+00
  3.4499999E-02  0.0000000E+00
  3.5000000E-02  0.0000000E+00
  3.5500001E-02  0.0000000E+00
  3.5999998E-02  0.0000000E+00
  3.6499999E-02  0.0000000E+00
  3.7000000E-02  0.0000000E+00
  3.7500001E-02  0.0000000E+00
  3.7999999E-02  0.0000000E+00
  3.8500000E-02  0.0000000E+00
  3.9000001E-02  0.0000000E+00
  3.9500002E-02  0.0000000E+00
  3.9999999E-02  0.0000000E+00
  4.0500000E-02  0.0000000E+00
  4.1000001E-02  0.0000000E+00
  4.1499998E-02  0.0000000E+00
  4.1999999E-02  0.0000000E+00
  4.2500000E-02  0.0000000E+00
  4.3000001E-02  0.0000000E+00
  4.3499999E-02  0.0000000E+00
  4.4000000E-02  0.0000000E+00
  4.4500001E-02  0.0000000E+00
  4.5000002E-02  0.0000000E+00
  4.5499999E-02  0.0000000E+00
  4.6000000E-02  0.0000000E+00
  4.6500001E-02  0.0000000E+00
  4.6999998E-02  0.0000000E+00
  4.7499999E-02  0.0000000E+00
  4.8000000E-02  0.0000000E+00
  4.8500001E-02  0.0000000E+00
  4.8999999E-02  0.0000000E+00
  4.9500000E-02  0.0000000E+00
  5.0000001E-02  0.0000000E+00
  5.0500002E-02  0.0000000E+00
  5.0999999E-02  0.0000000E+00
  5.1500000E-02  0.0000000E+00
  5.2000001E-02  0.0000000E+00
  5.2499998E-02  0.0000000E+00
  5.2999999E-02  0.0000000E+00
  5.3500000E-02  0.0000000E+00
  5.4000001E-02  0.0000000E+00
  5.4499999E-02  0.0000000E+00
  5.5000000E-02  0.0000000E+00
  5.5500001E-02  0.0000000E+00
  5.6000002E-02  0.0000000E+00
  5.6499999E-02  0.0000000E+00
  5.7000000E-02  0.0000000E+00
  5.7500001E-02  0.0000000E+00
  5.7999998E-02  0.0000000E+00
  5.8499999E-02  0.0000000E+00
  5.9000000E-02  0.0000000E+00
  5.9500001E-02  0.0000000E+00
  5.9999999E-02  0.0000000E+00
  6.0500000E-02  0.0000000E+00
  6.1000001E-02  0.0000000E+00
  6.1500002E-02  0.0000000E+00
  6.1999999E-02  0.0000000E+00
  6.2500000E-02  0.0000000E+00
  6.3000001E-02  0.0000000E+00
  6.3500002E-02  0.0000000E+00
  6.4000003E-02  0.0000000E+00
  6.4499997E-02  0.0000000E+00
  6.4999998E-02  0.0000000E+00
  6.5499999E-02  0.0000000E+00
  6.6000000E-02  0.0000000E+00
  6.6500001E-02  0.0000000E+00
  6.7000002E-02  0.0000000E+00
  6.7500003E-02  0.0000000E+00
  6.8000004E-02  0.0000000E+00
  6.8499997E-02  0.0000000E+00
  6.8999998E-02  0.0000000E+00
  6.9499999E-02  0.0000000E+00
  7.0000000E-02  0.0000000E+00
  7.0500001E-02  0.0000000E+00
  7.1000002E-02  0.0000000E+00
  7.1500003E-02  0.0000000E+00
  7.1999997E-02  0.0000000E+00
  7.2499998E-02  0.0000000E+00
  7.2999999E-02  0.0000000E+00
  7.3500000E-02  0.0000000E+00
  7.4000001E-02  0.0000000E+00
  7.4500002E-02  0.0000000E+00
  7.5000003E-02  0.0000000E+00
  7.5499997E-02  0.0000000E+00
  7.5999998E-02  0.0000000E+00
  7.6499999E-02  0.0000000E+00
  7.7000000E-02  0.0000000E+00
  7.7500001E-02  0.0000000E+00
  7.8000002E-02 -1.4581386E-38
  7.8500003E-02 -1.9383510E-38
  7.9000004E-02 -2.3105776E-38
  7.9499997E-02 -2.5167320E-38
  7.9999998E-02 -3.1031673E-38
  8.0499999E-02 -4.1264226E-38
  8.1000000E-02 -4.8841877E-38
  8.1500001E-02 -4.7735070E-38
  8.2000002E-02 -3.2307763E-38
  8.2500003E-02  0.0000000E+00
  8.2999997E-02  6.0495955E-38
  8.3499998E-02  1.2836848E-37
  8.3999999E-02  2.0320955E-37
  8.4500000E-02  2.7295272E-37
  8.5000001E-02  3.2156540E-37
  8.5500002E-02  3.3310048E-37
  8.6000003E-02  2.9144147E-37
  8.6499996E-02  1.8369856E-37
  8.6999997E-02  0.0000000E+00
  8.7499999E-02 -2.5207373E-37
  8.8000000E-02 -5.7060228E-37
  8.8500001E-02 -9.3530005E-37
  8.9000002E-02 -1.3182024E-36
  8.9500003E-02 -1.6828202E-36
  9.0000004E-02 -1.9848298E-36
  9.0499997E-02 -2.1737869E-36
  9.0999998E-02 -2.1958653E-36
  9.1499999E-02 -1.9966386E-36
  9.2000000E-02 -1.5251962E-36
  9.2500001E-02 -7.3877365E-37
  9.3000002E-02  3.9170027E-37
  9.3500003E-02  1.8754116E-36
  9.3999997E-02  3.6950604E-36
  9.4499998E-02  5.8001538E-36
  9.4999999E-02  8.1007381E-36
  9.5500000E-02  1.0462092E-35
  9.6000001E-02  1.2700911E-35
  9.6500002E-02  1.4584008E-35
  9.7000003E-02  1.5829914E-35
  9.7499996E-02  1.6114904E-35
  9.7999997E-02  1.5084276E-35
  9.8499998E-02  1.2370271E-35
  9.8999999E-02  7.6175786E-36
  9.9500000E-02  5.1821179E-37
  0.1000000     -9.1441888E-36
  0.1005000     -2.1440549E-35
  0.1010000     -3.6234298E-35
  0.1015000     -5.3113909E-35
  0.1020000     -7.1325043E-35
  0.1025000     -8.9709504E-35
  0.1030000     -1.0666051E-34
  0.1035000     -1.2010611E-34
  0.1040000     -1.2753409E-34
  0.1045000     -1.2607215E-34
  0.1050000     -1.1263657E-34
  0.1055000     -8.4158887E-35
  0.1060000     -3.7895903E-35
  0.1065000      2.8179954E-35
  0.1070000      1.1492300E-34
  0.1075000      2.2151387E-34
  0.1080000      3.4495442E-34
  0.1085000      4.7960932E-34
  0.1090000      6.1685724E-34
  0.1095000      7.4492390E-34
  0.1100000      8.4897095E-34
  0.1105000      9.1151358E-34
  0.1110000      9.1322632E-34
  0.1115000      8.3417460E-34
  0.1120000      6.5547989E-34
  0.1125000      3.6138434E-34
  0.1130000     -5.8366870E-35
  0.1135000     -6.0595765E-34
  0.1140000     -1.2729352E-33
  0.1145000     -2.0378791E-33
  0.1150000     -2.8645771E-33
  0.1155000     -3.7010010E-33
  0.1160000     -4.4793759E-33
  0.1165000     -5.1176127E-33
  0.1170000     -5.5223156E-33
  0.1175000     -5.5934984E-33
  0.1180000     -5.2310296E-33
  0.1185000     -4.3426876E-33
  0.1190000     -2.8535574E-33
  0.1195000     -7.1634185E-34
  0.1200000      2.0780103E-33
  0.1205000      5.4900964E-33
  0.1210000      9.4231220E-33
  0.1215000      1.3716178E-32
  0.1220000      1.8140692E-32
  0.1225000      2.2400986E-32
  0.1230000      2.6139788E-32
  0.1235000      2.8949349E-32
  0.1240000      3.0388610E-32
  0.1245000      3.0006509E-32
  0.1250000      2.7371189E-32
  0.1255000      2.2104406E-32
  0.1260000      1.3919965E-32
  0.1265000      2.6645368E-33
  0.1270000     -1.1641300E-32
  0.1275000     -2.8764453E-32
  0.1280000     -4.8226154E-32
  0.1285000     -6.9277671E-32
  0.1290000     -9.0888324E-32
  0.1295000     -1.1174958E-31
  0.1300000     -1.3029818E-31
  0.1305000     -1.4476148E-31
  0.1310000     -1.5322669E-31
  0.1315000     -1.5373469E-31
  0.1320000     -1.4439814E-31
  0.1325000     -1.2354064E-31
  0.1330000     -8.9852872E-32
  0.1335000     -4.2558517E-32
  0.1340000      1.8419231E-32
  0.1345000      9.2301456E-32
  0.1350000      1.7732081E-31
  0.1355000      2.7062586E-31
  0.1360000      3.6823710E-31
  0.1365000      4.6506760E-31
  0.1370000      5.5502019E-31
  0.1375000      6.3116876E-31
  0.1380000      6.8602842E-31
  0.1385000      7.1191196E-31
  0.1390000      7.0136557E-31
  0.1395000      6.4766781E-31
  0.1400000      5.4537150E-31
  0.1405000      3.9085979E-31
  0.1410000      1.8288395E-31
  0.1415000     -7.6953814E-32
  0.1420000     -3.8381050E-31
  0.1425000     -7.2934238E-31
  0.1430000     -1.1016075E-30
  0.1435000     -1.4851579E-30
  0.1440000     -1.8613409E-30
  0.1445000     -2.2088150E-30
  0.1450000     -2.5042782E-30
  0.1455000     -2.7233945E-30
  0.1460000     -2.8418859E-30
  0.1465000     -2.8367575E-30
  0.1470000     -2.6876083E-30
  0.1475000     -2.3779700E-30
  0.1480000     -1.8966240E-30
  0.1485000     -1.2388351E-30
  0.1490000     -4.0744684E-31
  0.1495000      5.8621428E-31
  0.1500000      1.7216772E-30
  0.1505000      2.9689487E-30
  0.1510000      4.2884648E-30
  0.1515000      5.6314011E-30
  0.1520000      6.9403865E-30
  0.1525000      8.1506378E-30
  0.1530000      9.1915488E-30
  0.1535000      9.9887506E-30
  0.1540000      1.0466657E-29
  0.1545000      1.0551477E-29
  0.1550000      1.0174697E-29
  0.1555000      9.2769390E-30
  0.1560000      7.8121459E-30
  0.1565000      5.7519387E-30
  0.1570000      3.0899866E-30
  0.1575000     -1.5383624E-31
  0.1580000     -3.9297653E-30
  0.1585000     -8.1552285E-30
  0.1590000     -1.2713017E-29
  0.1595000     -1.7450857E-29
  0.1600000     -2.2182700E-29
  0.1605000     -2.6691954E-29
  0.1610000     -3.0736891E-29
  0.1615000     -3.4058244E-29
  0.1620000     -3.6389041E-29
  0.1625000     -3.7466418E-29
  0.1630000     -3.7045160E-29
  0.1635000     -3.4912418E-29
  0.1640000     -3.0903087E-29
  0.1645000     -2.4915024E-29
  0.1650000     -1.6923359E-29
  0.1655000     -6.9929990E-30
  0.1660000      4.7115461E-30
  0.1665000      1.7919835E-29
  0.1670000      3.2253425E-29
  0.1675000      4.7228677E-29
  0.1680000      6.2264864E-29
  0.1685000      7.6697915E-29
  0.1690000      8.9799776E-29
  0.1695000      1.0080320E-28
  0.1700000      1.0893164E-28
  0.1705000      1.1343346E-28
  0.1710000      1.1361953E-28
  0.1715000      1.0890337E-28
  0.1720000      9.8841957E-29
  0.1725000      8.3176009E-29
  0.1730000      6.1867671E-29
  0.1735000      3.5133639E-29
  0.1740000      3.4714425E-30
  0.1745000     -3.2323436E-29
  0.1750000     -7.1152061E-29
  0.1755000     -1.1162040E-28
  0.1760000     -1.5206377E-28
  0.1765000     -1.9058900E-28
  0.1770000     -2.2513543E-28
  0.1775000     -2.5355489E-28
  0.1780000     -2.7371011E-28
  0.1785000     -2.8358890E-28
  0.1790000     -2.8143077E-28
  0.1795000     -2.6586088E-28
  0.1800000     -2.3602382E-28
  0.1805000     -1.9170984E-28
  0.1810000     -1.3346341E-28
  0.1815000     -6.2664440E-29
  0.1820000      1.8428164E-29
  0.1825000      1.0668009E-28
  0.1830000      1.9814018E-28
  0.1835000      2.8815968E-28
  0.1840000      3.7157419E-28
  0.1845000      4.4294679E-28
  0.1850000      4.9686566E-28
  0.1855000      5.2828456E-28
  0.1860000      5.3289052E-28
  0.1865000      5.0747710E-28
  0.1870000      4.5029922E-28
  0.1875000      3.6138219E-28
  0.1880000      2.4275731E-28
  0.1885000      9.8597737E-29
  0.1890000     -6.4769084E-29
  0.1895000     -2.3899021E-28
  0.1900000     -4.1396771E-28
  0.1905000     -5.7829210E-28
  0.1910000     -7.1981906E-28
  0.1915000     -8.2637051E-28
  0.1920000     -8.8652674E-28
  0.1925000     -8.9046998E-28
  0.1930000     -8.3082884E-28
  0.1935000     -7.0346782E-28
  0.1940000     -5.0816480E-28
  0.1945000     -2.4911868E-28
  0.1950000      6.4765401E-29
  0.1955000      4.1985494E-28
  0.1960000      7.9806502E-28
  0.1965000      1.1774434E-27
  0.1970000      1.5330626E-27
  0.1975000      1.8381977E-27
  0.1980000      2.0657465E-27
  0.1985000      2.1898326E-27
  0.1990000      2.1875163E-27
  0.1995000      2.0405228E-27
  0.2000000      1.7368924E-27
  0.2005000      1.2724513E-27
  0.2010000      6.5200298E-28
  0.2015000     -1.0984735E-28
  0.2020000     -9.8831926E-28
  0.2025000     -1.9485927E-27
  0.2030000     -2.9464956E-27
  0.2035000     -3.9297599E-27
  0.2040000     -4.8398373E-27
  0.2045000     -5.6142399E-27
  0.2050000     -6.1893383E-27
  0.2055000     -6.5035411E-27
  0.2060000     -6.5007285E-27
  0.2065000     -6.1338184E-27
  0.2070000     -5.3683129E-27
  0.2075000     -4.1856601E-27
  0.2080000     -2.5862635E-27
  0.2085000     -5.9196182E-28
  0.2090000      1.7521885E-27
  0.2095000      4.3769920E-27
  0.2100000      7.1891945E-27
  0.2105000      1.0072690E-26
  0.2110000      1.2890933E-26
  0.2115000      1.5490614E-26
  0.2120000      1.7706584E-26
  0.2125000      1.9367977E-26
  0.2130000      2.0305421E-26
  0.2135000      2.0359132E-26
  0.2140000      1.9387657E-26
  0.2145000      1.7276977E-26
  0.2150000      1.3949540E-26
  0.2155000      9.3728847E-27
  0.2160000      3.5673453E-27
  0.2165000     -3.3875891E-27
  0.2170000     -1.1348726E-26
  0.2175000     -2.0106875E-26
  0.2180000     -2.9387121E-26
  0.2185000     -3.8852019E-26
  0.2190000     -4.8107869E-26
  0.2195000     -5.6714089E-26
  0.2200000     -6.4195670E-26
  0.2205000     -7.0058478E-26
  0.2210000     -7.3807003E-26
  0.2215000     -7.4964084E-26
  0.2220000     -7.3091938E-26
  0.2225000     -6.7813885E-26
  0.2230000     -5.8835804E-26
  0.2235000     -4.5966663E-26
  0.2240000     -2.9137200E-26
  0.2245000     -8.4160296E-27
  0.2250000      1.5977526E-26
  0.2255000      4.3664560E-26
  0.2260000      7.4101976E-26
  0.2265000      1.0658268E-25
  0.2270000      1.4024049E-25
  0.2275000      1.7406019E-25
  0.2280000      2.0689226E-25
  0.2285000      2.3747255E-25
  0.2290000      2.6444612E-25
  0.2295000      2.8639551E-25
  0.2300000      3.0187303E-25
  0.2305000      3.0943641E-25
  0.2310000      3.0768802E-25
  0.2315000      2.9531735E-25
  0.2320000      2.7114619E-25
  0.2325000      2.3417671E-25
  0.2330000      1.8364199E-25
  0.2335000      1.1905819E-25
  0.2340000      4.0278551E-26
  0.2345000     -5.2452508E-26
  0.2350000     -1.5844582E-25
  0.2355000     -2.7651623E-25
  0.2360000     -4.0493566E-25
  0.2365000     -5.4139292E-25
  0.2370000     -6.8296298E-25
  0.2375000     -8.2608957E-25
  0.2380000     -9.6658427E-25
  0.2385000     -1.0996452E-24
  0.2390000     -1.2199012E-24
  0.2395000     -1.3214824E-24
  0.2400000     -1.3981226E-24
  0.2405000     -1.4432941E-24
  0.2410000     -1.4503782E-24
  0.2415000     -1.4128696E-24
  0.2420000     -1.3246160E-24
  0.2425000     -1.1800858E-24
  0.2430000     -9.7466427E-25
  0.2435000     -7.0496565E-25
  0.2440000     -3.6915690E-25
  0.2445000      3.2721445E-26
  0.2450000      4.9844674E-25
  0.2455000      1.0233355E-24
  0.2460000      1.6000069E-24
  0.2465000      2.2182057E-24
  0.2470000      2.8646997E-24
  0.2475000      3.5232690E-24
  0.2480000      4.1747955E-24
  0.2485000      4.7974726E-24
  0.2490000      5.3671359E-24
  0.2495000      5.8577241E-24
  0.2500000      6.2418730E-24
  0.2505000      6.4916362E-24
  0.2510000      6.5793275E-24
  0.2515000      6.4784634E-24
  0.2520000      6.1648028E-24
  0.2525000      5.6174410E-24
  0.2530000      4.8199405E-24
  0.2535000      3.7614631E-24
  0.2540000      2.4378616E-24
  0.2545000      8.5269444E-25
  0.2550000     -9.8187979E-25
  0.2555000     -3.0443752E-24
  0.2560000     -5.3034563E-24
  0.2565000     -7.7176668E-24
  0.2570000     -1.0235443E-23
  0.2575000     -1.2795445E-23
  0.2580000     -1.5327231E-23
  0.2585000     -1.7752300E-23
  0.2590000     -1.9985493E-23
  0.2595000     -2.1936772E-23
  0.2600000     -2.3513345E-23
  0.2605000     -2.4622127E-23
  0.2610000     -2.5172468E-23
  0.2615000     -2.5079144E-23
  0.2620000     -2.4265486E-23
  0.2625000     -2.2666624E-23
  0.2630000     -2.0232720E-23
  0.2635000     -1.6932110E-23
  0.2640000     -1.2754250E-23
  0.2645000     -7.7123594E-24
  0.2650000     -1.8456332E-24
  0.2655000      4.7790515E-24
  0.2660000      1.2066066E-23
  0.2665000      1.9890676E-23
  0.2670000      2.8099497E-23
  0.2675000      3.6511790E-23
  0.2680000      4.4921691E-23
  0.2685000      5.3101364E-23
  0.2690000      6.0805058E-23
  0.2695000      6.7774089E-23
  0.2700000      7.3742648E-23
  0.2705000      7.8444341E-23
  0.2710000      8.1619355E-23
  0.2715000      8.3022145E-23
  0.2720000      8.2429408E-23
  0.2725000      7.9648149E-23
  0.2730000      7.4523721E-23
  0.2735000      6.6947476E-23
  0.2740000      5.6863896E-23
  0.2745000      4.4276961E-23
  0.2750000      2.9255402E-23
  0.2755000      1.1936796E-23
  0.2760000     -7.4698612E-24
  0.2765000     -2.8683222E-23
  0.2770000     -5.1350427E-23
  0.2775000     -7.5049873E-23
  0.2780000     -9.9296005E-23
  0.2785000     -1.2354606E-22
  0.2790000     -1.4720884E-22
  0.2795000     -1.6965539E-22
  0.2800000     -1.9023138E-22
  0.2805000     -2.0827114E-22
  0.2810000     -2.2311294E-22
  0.2815000     -2.3411529E-22
  0.2820000     -2.4067391E-22
  0.2825000     -2.4223906E-22
  0.2830000     -2.3833260E-22
  0.2835000     -2.2856446E-22
  0.2840000     -2.1264830E-22
  0.2845000     -1.9041561E-22
  0.2850000     -1.6182776E-22
  0.2855000     -1.2698612E-22
  0.2860000     -8.6139395E-23
  0.2865000     -3.9688094E-23
  0.2870000      1.1814059E-23
  0.2875000      6.7662045E-23
  0.2880000      1.2700479E-22
  0.2885000      1.8885355E-22
  0.2890000      2.5209399E-22
  0.2895000      3.1550084E-22
  0.2900000      3.7775585E-22
  0.2905000      4.3746803E-22
  0.2910000      4.9319624E-22
  0.2915000      5.4347372E-22
  0.2920000      5.8683396E-22
  0.2925000      6.2183772E-22
  0.2930000      6.4710061E-22
  0.2935000      6.6132090E-22
  0.2940000      6.6330762E-22
  0.2945000      6.5200730E-22
  0.2950000      6.2653125E-22
  0.2955000      5.8618070E-22
  0.2960000      5.3047142E-22
  0.2965000      4.5915653E-22
  0.2970000      3.7224849E-22
  0.2975000      2.7003830E-22
  0.2980000      1.5311400E-22
  0.2985000      2.2375816E-23
  0.2990000     -1.2095006E-22
  0.2995000     -2.7530094E-22
  0.3000000     -4.3877029E-22
  0.3005000     -6.0910417E-22
  0.3010000     -7.8370198E-22
  0.3015000     -9.5962271E-22
  0.3020000     -1.1335974E-21
  0.3025000     -1.3020486E-21
  0.3030000     -1.4611187E-21
  0.3035000     -1.6067074E-21
  0.3040000     -1.7345190E-21
  0.3045000     -1.8401233E-21
  0.3050000     -1.9190261E-21
  0.3055000     -1.9667548E-21
  0.3060000     -1.9789561E-21
  0.3065000     -1.9515053E-21
  0.3070000     -1.8806295E-21
  0.3075000     -1.7630400E-21
  0.3080000     -1.5960732E-21
  0.3085000     -1.3778370E-21
  0.3090000     -1.1073609E-21
  0.3095000     -7.8474065E-22
  0.3100000     -4.1127908E-22
  0.3105000      1.0387215E-23
  0.3110000      4.7617876E-22
  0.3115000      9.8048923E-22
  0.3120000      1.5161318E-21
  0.3125000      2.0743220E-21
  0.3130000      2.6447038E-21
  0.3135000      3.2154243E-21
  0.3140000      3.7732571E-21
  0.3145000      4.3037840E-21
  0.3150000      4.7916315E-21
  0.3155000      5.2207630E-21
  0.3160000      5.5748261E-21
  0.3165000      5.8375501E-21
  0.3170000      5.9931857E-21
  0.3175000      6.0269817E-21
  0.3180000      5.9256889E-21
  0.3185000      5.6780715E-21
  0.3190000      5.2754247E-21
  0.3195000      4.7120687E-21
  0.3200000      3.9858158E-21
  0.3205000      3.0983815E-21
  0.3210000      2.0557335E-21
  0.3215000      8.6835244E-22
  0.3220000     -4.4860351E-22
  0.3225000     -1.8752538E-21
  0.3230000     -3.3870730E-21
  0.3235000     -4.9551051E-21
  0.3240000     -6.5463227E-21
  0.3245000     -8.1241245E-21
  0.3250000     -9.6489811E-21
  0.3255000     -1.1079218E-20
  0.3260000     -1.2371921E-20
  0.3265000     -1.3483952E-20
  0.3270000     -1.4373061E-20
  0.3275000     -1.4999067E-20
  0.3280000     -1.5325075E-20
  0.3285000     -1.5318705E-20
  0.3290000     -1.4953296E-20
  0.3295000     -1.4209063E-20
  0.3300000     -1.3074146E-20
  0.3305000     -1.1545544E-20
  0.3310000     -9.6298727E-21
  0.3315000     -7.3439340E-21
  0.3320000     -4.7150648E-21
  0.3325000     -1.7812224E-21
  0.3330000      1.4091876E-21
  0.3335000      4.7977752E-21
  0.3340000      8.3169206E-21
  0.3345000      1.1890821E-20
  0.3350000      1.5436817E-20
  0.3355000      1.8867006E-20
  0.3360000      2.2090080E-20
  0.3365000      2.5013396E-20
  0.3370000      2.7545218E-20
  0.3375000      2.9597094E-20
  0.3380000      3.1086307E-20
  0.3385000      3.1938368E-20
  0.3390000      3.2089448E-20
  0.3395000      3.1488734E-20
  0.3400000      3.0100598E-20
  0.3405000      2.7906557E-20
  0.3410000      2.4906917E-20
  0.3415000      2.1122073E-20
  0.3420000      1.6593390E-20
  0.3425000      1.1383635E-20
  0.3430000      5.5768868E-21
  0.3435000     -7.2207915E-22
  0.3440000     -7.3889669E-21
  0.3445000     -1.4281703E-20
  0.3450000     -2.1242743E-20
  0.3455000     -2.8101930E-20
  0.3460000     -3.4679864E-20
  0.3465000     -4.0791740E-20
  0.3470000     -4.6251594E-20
  0.3475000     -5.0876904E-20
  0.3480000     -5.4493412E-20
  0.3485000     -5.6940115E-20
  0.3490000     -5.8074289E-20
  0.3495000     -5.7776453E-20
  0.3500000     -5.5955098E-20
  0.3505000     -5.2551137E-20
  0.3510000     -4.7541834E-20
  0.3515000     -4.0944222E-20
  0.3520000     -3.2817741E-20
  0.3525000     -2.3266086E-20
  0.3530000     -1.2438111E-20
  0.3535000     -5.2769867E-22
  0.3540000      1.2227481E-20
  0.3545000      2.5548360E-20
  0.3550000      3.9118095E-20
  0.3555000      5.2586902E-20
  0.3560000      6.5578084E-20
  0.3565000      7.7695253E-20
  0.3570000      8.8530653E-20
  0.3575000      9.7674495E-20
  0.3580000      1.0472515E-19
  0.3585000      1.0930010E-19
  0.3590000      1.1104741E-19
  0.3595000      1.0965750E-19
  0.3600000      1.0487509E-19
  0.3605000      9.6510807E-20
  0.3610000      8.4452426E-20
  0.3615000      6.8675320E-20
  0.3620000      4.9251720E-20
  0.3625000      2.6358634E-20
  0.3630000      2.8393631E-22
  0.3635000     -2.8569616E-20
  0.3640000     -5.9682807E-20
  0.3645000     -9.2421058E-20
  0.3650000     -1.2603857E-19
  0.3655000     -1.5968552E-19
  0.3660000     -1.9241888E-19
  0.3665000     -2.2321655E-19
  0.3670000     -2.5099503E-19
  0.3675000     -2.7463087E-19
  0.3680000     -2.9298518E-19
  0.3685000     -3.0493152E-19
  0.3690000     -3.0938675E-19
  0.3695000     -3.0534393E-19
  0.3700000     -2.9190767E-19
  0.3705000     -2.6833013E-19
  0.3710000     -2.3404768E-19
  0.3715000     -1.8871731E-19
  0.3720000     -1.3225114E-19
  0.3725000     -6.4848763E-20
  0.3730000      1.2974280E-20
  0.3735000      1.0036282E-19
  0.3740000      1.9610452E-19
  0.3745000      2.9861957E-19
  0.3750000      4.0595900E-19
  0.3755000      5.1581225E-19
  0.3760000      6.2552535E-19
  0.3765000      7.3213048E-19
  0.3770000      8.3238699E-19
  0.3775000      9.2283485E-19
  0.3780000      9.9986036E-19
  0.3785000      1.0597728E-18
  0.3790000      1.0988937E-18
  0.3795000      1.1136548E-18
  0.3800000      1.1007048E-18
  0.3805000      1.0570243E-18
  0.3810000      9.8004276E-19
  0.3815000      8.6775889E-19
  0.3820000      7.1885955E-19
  0.3825000      5.3283299E-19
  0.3830000      3.1007509E-19
  0.3835000      5.1982663E-20
  0.3840000     -2.3896894E-19
  0.3845000     -5.5916748E-19
  0.3850000     -9.0383027E-19
  0.3855000     -1.2669963E-18
  0.3860000     -1.6415491E-18
  0.3865000     -2.0192734E-18
  0.3870000     -2.3909449E-18
  0.3875000     -2.7464576E-18
  0.3880000     -3.0749881E-18
  0.3885000     -3.3651955E-18
  0.3890000     -3.6054561E-18
  0.3895000     -3.7841304E-18
  0.3900000     -3.8898611E-18
  0.3905000     -3.9118889E-18
  0.3910000     -3.8403936E-18
  0.3915000     -3.6668404E-18
  0.3920000     -3.3843315E-18
  0.3925000     -2.9879511E-18
  0.3930000     -2.4750948E-18
  0.3935000     -1.8457725E-18
  0.3940000     -1.1028782E-18
  0.3945000     -2.5240793E-19
  0.3950000      6.9637249E-19
  0.3955000      1.7308306E-18
  0.3960000      2.8349442E-18
  0.3965000      3.9893610E-18
  0.3970000      5.1715464E-18
  0.3975000      6.3560281E-18
  0.3980000      7.5147324E-18
  0.3985000      8.6174204E-18
  0.3990000      9.6322213E-18
  0.3995000      1.0526249E-17
  0.4000000      1.1266305E-17
  0.4005000      1.1819655E-17
  0.4010000      1.2154866E-17
  0.4015000      1.2242682E-17
  0.4020000      1.2056932E-17
  0.4025000      1.1575445E-17
  0.4030000      1.0780944E-17
  0.4035000      9.6619071E-18
  0.4040000      8.2133658E-18
  0.4045000      6.4376092E-18
  0.4050000      4.3447819E-18
  0.4055000      1.9533461E-18
  0.4060000     -7.0961995E-19
  0.4065000     -3.6083016E-18
  0.4070000     -6.6982195E-18
  0.4075000     -9.9265197E-18
  0.4080000     -1.3232486E-17
  0.4085000     -1.6548271E-17
  0.4090000     -1.9799870E-17
  0.4095000     -2.2908305E-17
  0.4100000     -2.5791042E-17
  0.4105000     -2.8363570E-17
  0.4110000     -3.0541212E-17
  0.4115000     -3.2241025E-17
  0.4120000     -3.3383848E-17
  0.4125000     -3.3896429E-17
  0.4130000     -3.3713546E-17
  0.4135000     -3.2780159E-17
  0.4140000     -3.1053465E-17
  0.4145000     -2.8504833E-17
  0.4150000     -2.5121588E-17
  0.4155000     -2.0908537E-17
  0.4160000     -1.5889248E-17
  0.4165000     -1.0106965E-17
  0.4170000     -3.6251769E-18
  0.4175000      3.4722424E-18
  0.4180000      1.1081337E-17
  0.4185000      1.9078845E-17
  0.4190000      2.7323473E-17
  0.4195000      3.5657642E-17
  0.4200000      4.3909755E-17
  0.4205000      5.1896898E-17
  0.4210000      5.9428030E-17
  0.4215000      6.6307539E-17
  0.4220000      7.2339175E-17
  0.4225000      7.7330270E-17
  0.4230000      8.1096165E-17
  0.4235000      8.3464787E-17
  0.4240000      8.4281221E-17
  0.4245000      8.3412291E-17
  0.4250000      8.0750933E-17
  0.4255000      7.6220319E-17
  0.4260000      6.9777575E-17
  0.4265000      6.1417075E-17
  0.4270000      5.1173098E-17
  0.4275000      3.9121835E-17
  0.4280000      2.5382631E-17
  0.4285000      1.0118381E-17
  0.4290000     -6.4649868E-18
  0.4295000     -2.4119955E-17
  0.4300000     -4.2559826E-17
  0.4305000     -6.1462140E-17
  0.4310000     -8.0473060E-17
  0.4315000     -9.9212665E-17
  0.4320000     -1.1728116E-16
  0.4325000     -1.3426584E-16
  0.4330000     -1.4974887E-16
  0.4335000     -1.6331551E-16
  0.4340000     -1.7456285E-16
  0.4345000     -1.8310888E-16
  0.4350000     -1.8860163E-16
  0.4355000     -1.9072820E-16
  0.4360000     -1.8922371E-16
  0.4365000     -1.8387956E-16
  0.4370000     -1.7455127E-16
  0.4375000     -1.6116520E-16
  0.4380000     -1.4372460E-16
  0.4385000     -1.2231407E-16
  0.4390000     -9.7102831E-17
  0.4395000     -6.8346480E-17
  0.4400000     -3.6387030E-17
  0.4405000     -1.6512042E-18
  0.4410000      3.5353041E-17
  0.4415000      7.4041810E-17
  0.4420000      1.1376247E-16
  0.4425000      1.5380260E-16
  0.4430000      1.9340060E-16
  0.4435000      2.3175798E-16
  0.4440000      2.6805303E-16
  0.4445000      3.0145572E-16
  0.4450000      3.3114359E-16
  0.4455000      3.5631844E-16
  0.4460000      3.7622334E-16
  0.4465000      3.9016005E-16
  0.4470000      3.9750576E-16
  0.4475000      3.9772972E-16
  0.4480000      3.9040887E-16
  0.4485000      3.7524184E-16
  0.4490000      3.5206194E-16
  0.4495000      3.2084756E-16
  0.4500000      2.8173091E-16
  0.4505000      2.3500368E-16
  0.4510000      1.8112016E-16
  0.4515000      1.2069744E-16
  0.4520000      5.4512228E-17
  0.4525000     -1.6505451E-17
  0.4530000     -9.1282100E-17
  0.4535000     -1.6861354E-16
  0.4540000     -2.4718118E-16
  0.4545000     -3.2557125E-16
  0.4550000     -4.0229690E-16
  0.4555000     -4.7582288E-16
  0.4560000     -5.4459232E-16
  0.4565000     -6.0705549E-16
  0.4570000     -6.6169970E-16
  0.4575000     -7.0708029E-16
  0.4580000     -7.4185125E-16
  0.4585000     -7.6479669E-16
  0.4590000     -7.7485976E-16
  0.4595000     -7.7117183E-16
  0.4600000     -7.5307772E-16
  0.4605000     -7.2015959E-16
  0.4610000     -6.7225665E-16
  0.4615000     -6.0948097E-16
  0.4620000     -5.3222934E-16
  0.4625000     -4.4118968E-16
  0.4630000     -3.3734270E-16
  0.4635000     -2.2195790E-16
  0.4640000     -9.6583772E-17
  0.4645000      3.6967721E-17
  0.4650000      1.7664232E-16
  0.4655000      3.2017043E-16
  0.4660000      4.6509933E-16
  0.4665000      6.0883039E-16
  0.4670000      7.4866113E-16
  0.4675000      8.8183060E-16
  0.4680000      1.0055686E-15
  0.4685000      1.1171474E-15
  0.4690000      1.2139344E-15
  0.4695000      1.2934463E-15
  0.4700000      1.3534027E-15
  0.4705000      1.3917775E-15
  0.4710000      1.4068494E-15
  0.4715000      1.3972479E-15
  0.4720000      1.3619945E-15
  0.4725000      1.3005397E-15
  0.4730000      1.2127923E-15
  0.4735000      1.0991420E-15
  0.4740000      9.6047374E-16
  0.4745000      7.9817328E-16
  0.4750000      6.1412419E-16
  0.4755000      4.1069430E-16
  0.4760000      1.9071333E-16
  0.4765000     -4.2559564E-17
  0.4770000     -2.8547763E-16
  0.4775000     -5.3405750E-16
  0.4780000     -7.8403858E-16
  0.4785000     -1.0309503E-15
  0.4790000     -1.2701865E-15
  0.4795000     -1.4970845E-15
  0.4800000     -1.7070101E-15
  0.4805000     -1.8954444E-15
  0.4810000     -2.0580720E-15
  0.4815000     -2.1908702E-15
  0.4820000     -2.2901954E-15
  0.4825000     -2.3528663E-15
  0.4830000     -2.3762410E-15