  0.0000000E+00  0.0000000E+00
  5.0000002E-04  0.0000000E+00
  1.0000000E-03  0.0000000E+00
  1.5000000E-03  0.0000000E+00
  2.0000001E-03  0.0000000E+00
  2.4999999E-03  0.0000000E+00
  3.0000000E-03  0.0000000E+00
  3.5000001E-03  0.0000000E+00
  4.0000002E-03  0.0000000E+00
  4.4999998E-03  0.0000000E+00
  4.9999999E-03  0.0000000E+00
  5.5000000E-03  0.0000000E+00
  6.0000001E-03  0.0000000E+00
  6.5000001E-03  0.0000000E+00
  7.0000002E-03  0.0000000E+00
  7.4999998E-03  0.0000000E+00
  8.0000004E-03  0.0000000E+00
  8.5000005E-03  0.0000000E+00
  8.9999996E-03  0.0000000E+00
  9.4999997E-03  0.0000000E+00
  9.9999998E-03  0.0000000E+00
  1.0500000E-02  0.0000000E+00
  1.1000000E-02  0.0000000E+00
  1.1500000E-02  0.0000000E+00
  1.2000000E-02  0.0000000E+00
  1.2500000E-02  0.0000000E+00
  1.3000000E-02  0.0000000E+00
  1.3500000E-02  0.0000000E+00
  1.4000000E-02  0.0000000E+00
  1.4500000E-02  0.0000000E+00
  1.5000000E-02  0.0000000E+00
  1.5500000E-02  0.0000000E+00
  1.6000001E-02  0.0000000E+00
  1.6500000E-02  0.0000000E+00
  1.7000001E-02  0.0000000E+00
  1.7500000E-02  0.0000000E+00
  1.7999999E-02  0.0000000E+00
  1.8500000E-02  0.0000000E+00
  1.8999999E-02  0.0000000E+00
  1.9500000E-02  0.0000000E+00
  2.0000000E-02  0.0000000E+00
  2.0500001E-02  0.0000000E+00
  2.1000000E-02  0.0000000E+00
  2.1500001E-02  0.0000000E+00
  2.2000000E-02  0.0000000E+00
  2.2500001E-02  0.0000000E+00
  2.3000000E-02  0.0000000E+00
  2.3499999E-02  0.0000000E+00
  2.4000000E-02  0.0000000E+00
  2.4499999E-02  0.0000000E+00
  2.5000000E-02  0.0000000E+00
  2.5500000E-02  0.0000000E+00
  2.6000001E-02  0.0000000E+00
  2.6500000E-02  0.0000000E+00
  2.7000001E-02  0.0000000E+00
  2.7500000E-02  0.0000000E+00
  2.8000001E-02  0.0000000E+00
  2.8500000E-02  0.0000000E+00
  2.8999999E-02  0.0000000E+00
  2.9500000E-02  0.0000000E+00
  2.9999999E-02  0.0000000E+00
  3.0500000E-02  0.0000000E+00
  3.0999999E-02  0.0000000E+00
  3.1500001E-02  0.0000000E+00
  3.2000002E-02  0.0000000E+00
  3.2499999E-02  0.0000000E+00
  3.3000000E-02  0.0000000E+00
  3.3500001E-02  0.0000000E+00
  3.4000002E-02  0.0000000E+00
  3.4499999E-02  0.0000000E+00
  3.5000000E-02  0.0000000E+00
  3.5500001E-02  0.0000000E+00
  3.5999998E-02  0.0000000E+00
  3.6499999E-02  0.0000000E+00
  3.7000000E-02  0.0000000E+00
  3.7500001E-02  0.0000000E+00
  3.7999999E-02  0.0000000E+00
  3.8500000E-02  0.0000000E+00
  3.9000001E-02  0.0000000E+00
  3.9500002E-02  0.0000000E+00
  3.9999999E-02  0.0000000E+00
  4.0500000E-02  0.0000000E+00
  4.1000001E-02  0.0000000E+00
  4.1499998E-02  0.0000000E+00
  4.1999999E-02  0.0000000E+00
  4.2500000E-02  0.0000000E+00
  4.3000001E-02  0.0000000E+00
  4.3499999E-02  0.0000000E+00
  4.4000000E-02  0.0000000E+00
  4.4500001E-02  0.0000000E+00
  4.5000002E-02  0.0000000E+00
  4.5499999E-02  0.0000000E+00
  4.6000000E-02  0.0000000E+00
  4.6500001E-02  0.0000000E+00
  4.6999998E-02  0.0000000E+00
  4.7499999E-02  0.0000000E+00
  4.8000000E-02  0.0000000E+00
  4.8500001E-02  0.0000000E+00
  4.8999999E-02  0.0000000E+00
  4.9500000E-02  0.0000000E+00
  5.0000001E-02  0.0000000E+00
  5.0500002E-02  0.0000000E+00
  5.0999999E-02  0.0000000E+00
  5.1500000E-02  0.0000000E+00
  5.2000001E-02  0.0000000E+00
  5.2499998E-02  0.0000000E+00
  5.2999999E-02  0.0000000E+00
  5.3500000E-02  0.0000000E+00
  5.4000001E-02  0.0000000E+00
  5.4499999E-02  0.0000000E+00
  5.5000000E-02  0.0000000E+00
  5.5500001E-02  0.0000000E+00
  5.6000002E-02  0.0000000E+00
  5.6499999E-02  0.0000000E+00
  5.7000000E-02  0.0000000E+00
  5.7500001E-02  0.0000000E+00
  5.7999998E-02  0.0000000E+00
  5.8499999E-02  0.0000000E+00
  5.9000000E-02  0.0000000E+00
  5.9500001E-02  0.0000000E+00
  5.9999999E-02  0.0000000E+00
  6.0500000E-02  0.0000000E+00
  6.1000001E-02 -1.8807522E-37
  6.1500002E-02 -1.6767933E-37
  6.1999999E-02 -1.7471100E-37
  6.2500000E-02  5.7859309E-37
  6.3000001E-02  9.5457357E-37
  6.3500002E-02 -5.3650329E-36
  6.4000003E-02 -1.1683524E-37
  6.4499997E-02 -2.6197535E-37
  6.4999998E-02  2.4840196E-36
  6.5499999E-02  3.7743245E-36
  6.6000000E-02  1.8777861E-35
  6.6500001E-02  3.8840305E-35
  6.7000002E-02  8.3518386E-35
  6.7500003E-02  3.8367516E-35
  6.8000004E-02  2.0578643E-35
  6.8499997E-02 -8.4768705E-36
  6.8999998E-02 -7.2641068E-35
  6.9499999E-02 -1.3736703E-34
  7.0000000E-02 -1.8543573E-34
  7.0500001E-02 -2.5644034E-34
  7.1000002E-02 -2.1968940E-34
  7.1500003E-02 -2.1732439E-34
  7.1999997E-02 -3.5657935E-34
  7.2499998E-02 -2.8791023E-34
  7.2999999E-02 -1.9632471E-34
  7.3500000E-02  2.6207629E-35
  7.4000001E-02  1.3662421E-34
  7.4500002E-02  1.5687877E-34
  7.5000003E-02  2.5274798E-34
  7.5499997E-02  5.7935015E-34
  7.5999998E-02 -1.9220197E-34
  7.6499999E-02 -5.1904752E-34
  7.7000000E-02 -3.3438714E-34
  7.7500001E-02  1.1726938E-34
  7.8000002E-02  3.9966367E-34
  7.8500003E-02  8.0548060E-34
  7.9000004E-02  4.6025104E-34
  7.9499997E-02 -3.0646883E-34
  7.9999998E-02 -4.3422366E-34
  8.0499999E-02 -1.1604743E-33
  8.1000000E-02 -1.8256643E-33
  8.1500001E-02 -1.3297519E-33
  8.2000002E-02 -1.0904231E-33
  8.2500003E-02 -1.1177807E-33
  8.2999997E-02 -1.2032683E-33
  8.3499998E-02 -1.4873331E-33
  8.3999999E-02 -1.2583322E-33
  8.4500000E-02 -2.9169947E-33
  8.5000001E-02 -2.8125153E-33
  8.5500002E-02 -2.5238477E-33
  8.6000003E-02 -1.8548081E-33
  8.6499996E-02 -3.0975020E-34
  8.6999997E-02  1.1280300E-33
  8.7499999E-02  1.7394894E-33
  8.8000000E-02  4.1496236E-33
  8.8500001E-02  6.7007292E-33
  8.9000002E-02  9.6140568E-33
  8.9500003E-02  1.4526956E-32
  9.0000004E-02  2.0771101E-32
  9.0499997E-02  2.4363033E-32
  9.0999998E-02  2.5590324E-32
  9.1499999E-02  2.3695273E-32
  9.2000000E-02  1.8017523E-32
  9.2500001E-02  7.2251621E-33
  9.3000002E-02 -7.8399838E-33
  9.3500003E-02 -2.7202973E-32
  9.3999997E-02 -4.9773681E-32
  9.4499998E-02 -7.2326193E-32
  9.4999999E-02 -9.5290445E-32
  9.5500000E-02 -1.1786131E-31
  9.6000001E-02 -1.3426895E-31
  9.6500002E-02 -1.4067127E-31
  9.7000003E-02 -1.3312387E-31
  9.7499996E-02 -1.0817788E-31
  9.7999997E-02 -6.3114137E-32
  9.8499998E-02  3.3992266E-33
  9.8999999E-02  9.1516684E-32
  9.9500000E-02  1.9829706E-31
  0.1000000      3.1804897E-31
  0.1005000      4.4270260E-31
  0.1010000      5.6131238E-31
  0.1015000      6.6051465E-31
  0.1020000      7.2544910E-31
  0.1025000      7.4059008E-31
  0.1030000      6.9116773E-31
  0.1035000      5.6471872E-31
  0.1040000      3.5285978E-31
  0.1045000      5.3122970E-32
  0.1050000     -3.2970903E-31
  0.1055000     -7.8201948E-31
  0.1060000     -1.2808917E-30
  0.1065000     -1.7942300E-30
  0.1070000     -2.2818905E-30
  0.1075000     -2.6979094E-30
  0.1080000     -2.9937150E-30
  0.1085000     -3.1222356E-30
  0.1090000     -3.0426706E-30
  0.1095000     -2.7253929E-30
  0.1100000     -2.1561527E-30
  0.1105000     -1.3396499E-30
  0.1110000     -3.0106094E-31
  0.1115000      9.1433731E-31
  0.1120000      2.2444282E-30
  0.1125000      3.6157443E-30
  0.1130000      4.9512665E-30
  0.1135000      6.1797551E-30
  0.1140000      7.2450791E-30
  0.1145000      8.1142769E-30
  0.1150000      8.7825964E-30
  0.1155000      9.2741261E-30
  0.1160000      9.6360640E-30
  0.1165000      9.9261527E-30
  0.1170000      1.0194116E-29
  0.1175000      1.0457295E-29
  0.1180000      1.0673930E-29
  0.1185000      1.0716952E-29
  0.1190000      1.0354577E-29
  0.1195000      9.2402274E-30
  0.1200000      6.9206111E-30
  0.1205000      2.8624202E-30
  0.1210000     -3.4959428E-30
  0.1215000     -1.2671128E-29
  0.1220000     -2.5040198E-29
  0.1225000     -4.0732588E-29
  0.1230000     -5.9518668E-29
  0.1235000     -8.0708279E-29
  0.1240000     -1.0307382E-28
  0.1245000     -1.2481334E-28
  0.1250000     -1.4357119E-28
  0.1255000     -1.5652248E-28
  0.1260000     -1.6053210E-28
  0.1265000     -1.5238548E-28
  0.1270000     -1.2907898E-28
  0.1275000     -8.8158649E-29
  0.1280000     -2.8072725E-29
  0.1285000      5.1477688E-29
  0.1290000      1.4924921E-28
  0.1295000      2.6224177E-28
  0.1300000      3.8558723E-28
  0.1305000      5.1259998E-28
  0.1310000      6.3494607E-28
  0.1315000      7.4298419E-28
  0.1320000      8.2622520E-28
  0.1325000      8.7390997E-28
  0.1330000      8.7565371E-28
  0.1335000      8.2211526E-28
  0.1340000      7.0567431E-28
  0.1345000      5.2103526E-28
  0.1350000      2.6577195E-28
  0.1355000     -5.9222213E-29
  0.1360000     -4.4935658E-28
  0.1365000     -8.9609447E-28
  0.1370000     -1.3867391E-27
  0.1375000     -1.9042702E-27
  0.1380000     -2.4272241E-27
  0.1385000     -2.9297383E-27
  0.1390000     -3.3815239E-27
  0.1395000     -3.7482356E-27
  0.1400000     -3.9919798E-27
  0.1405000     -4.0722841E-27
  0.1410000     -3.9476002E-27
  0.1415000     -3.5774187E-27
  0.1420000     -2.9251290E-27
  0.1425000     -1.9614857E-27
  0.1430000     -6.6872279E-28
  0.1435000      9.5497776E-28
  0.1440000      2.8909724E-27
  0.1445000      5.0961258E-27
  0.1450000      7.4995635E-27
  0.1455000      1.0000939E-26
  0.1460000      1.2470876E-26
  0.1465000      1.4753583E-26
  0.1470000      1.6672386E-26
  0.1475000      1.8038217E-26
  0.1480000      1.8660260E-26
  0.1485000      1.8359047E-26
  0.1490000      1.6980744E-26
  0.1495000      1.4411393E-26
  0.1500000      1.0590348E-26
  0.1505000      5.5213349E-27
  0.1510000     -7.1987145E-28
  0.1515000     -7.9827208E-27
  0.1520000     -1.6042956E-26
  0.1525000     -2.4610365E-26
  0.1530000     -3.3339844E-26
  0.1535000     -4.1846698E-26
  0.1540000     -4.9723943E-26
  0.1545000     -5.6559527E-26
  0.1550000     -6.1953506E-26
  0.1555000     -6.5530028E-26
  0.1560000     -6.6947316E-26
  0.1565000     -6.5900750E-26
  0.1570000     -6.2123456E-26
  0.1575000     -5.5382183E-26
  0.1580000     -4.5474352E-26
  0.1585000     -3.2226034E-26
  0.1590000     -1.5496488E-26
  0.1595000      4.8079277E-27
  0.1600000      2.8706975E-26
  0.1605000      5.6108453E-26
  0.1610000      8.6756359E-26
  0.1615000      1.2016850E-25
  0.1620000      1.5556760E-25
  0.1625000      1.9181989E-25
  0.1630000      2.2738351E-25
  0.1635000      2.6027746E-25
  0.1640000      2.8809188E-25
  0.1645000      3.0803840E-25
  0.1650000      3.1705385E-25
  0.1655000      3.1196390E-25
  0.1660000      2.8969184E-25
  0.1665000      2.4752786E-25
  0.1670000      1.8341514E-25
  0.1675000      9.6260123E-26
  0.1680000     -1.3776568E-26
  0.1685000     -1.4503009E-25
  0.1690000     -2.9415775E-25
  0.1695000     -4.5605760E-25
  0.1700000     -6.2391083E-25
  0.1705000     -7.8937450E-25
  0.1710000     -9.4287909E-25
  0.1715000     -1.0741129E-24
  0.1720000     -1.1725575E-24
  0.1725000     -1.2281462E-24
  0.1730000     -1.2319306E-24
  0.1735000     -1.1767388E-24
  0.1740000     -1.0577526E-24
  0.1745000     -8.7298010E-25
  0.1750000     -6.2355540E-25
  0.1755000     -3.1384217E-25
  0.1760000      4.8651120E-26
  0.1765000      4.5355780E-25
  0.1770000      8.8812968E-25
  0.1775000      1.3377706E-24
  0.1780000      1.7867068E-24
  0.1785000      2.2185893E-24
  0.1790000      2.6170693E-24
  0.1795000      2.9662286E-24
  0.1800000      3.2508475E-24
  0.1805000      3.4565041E-24
  0.1810000      3.5695187E-24
  0.1815000      3.5768160E-24
  0.1820000      3.4657610E-24
  0.1825000      3.2240495E-24
  0.1830000      2.8398442E-24
  0.1835000      2.3021649E-24
  0.1840000      1.6017197E-24
  0.1845000      7.3210991E-25
  0.1850000     -3.0850255E-25
  0.1855000     -1.5153232E-24
  0.1860000     -2.8747904E-24
  0.1865000     -4.3622635E-24
  0.1870000     -5.9400717E-24
  0.1875000     -7.5561286E-24
  0.1880000     -9.1433744E-24
  0.1885000     -1.0620435E-23
  0.1890000     -1.1893707E-23
  0.1895000     -1.2860823E-23
  0.1900000     -1.3415843E-23
  0.1905000     -1.3455640E-23
  0.1910000     -1.2887516E-23
  0.1915000     -1.1637333E-23
  0.1920000     -9.6576399E-24
  0.1925000     -6.9353172E-24
  0.1930000     -3.4975868E-24
  0.1935000      5.8397223E-25
  0.1940000      5.1919370E-24
  0.1945000      1.0164979E-23
  0.1950000      1.5302829E-23
  0.1955000      2.0374681E-23
  0.1960000      2.5130581E-23
  0.1965000      2.9314617E-23
  0.1970000      3.2680276E-23
  0.1975000      3.5005087E-23
  0.1980000      3.6105318E-23
  0.1985000      3.5847714E-23
  0.1990000      3.4158823E-23
  0.1995000      3.1029822E-23
  0.2000000      2.6517256E-23
  0.2005000      2.0738833E-23
  0.2010000      1.3865740E-23
  0.2015000      6.1108688E-24
  0.2020000     -2.2847782E-24
  0.2025000     -1.1066587E-23
  0.2030000     -1.9980089E-23
  0.2035000     -2.8782660E-23
  0.2040000     -3.7251880E-23
  0.2045000     -4.5189121E-23
  0.2050000     -5.2419309E-23
  0.2055000     -5.8785965E-23
  0.2060000     -6.4142735E-23
  0.2065000     -6.8343659E-23
  0.2070000     -7.1233300E-23
  0.2075000     -7.2638445E-23
  0.2080000     -7.2365764E-23
  0.2085000     -7.0204159E-23
  0.2090000     -6.5935620E-23
  0.2095000     -5.9353794E-23
  0.2100000     -5.0289895E-23
  0.2105000     -3.8643973E-23
  0.2110000     -2.4419385E-23
  0.2115000     -7.7560323E-24
  0.2120000      1.1042106E-23
  0.2125000      3.1488166E-23
  0.2130000      5.2909298E-23
  0.2135000      7.4460221E-23
  0.2140000      9.5156138E-23
  0.2145000      1.1392708E-22
  0.2150000      1.2968869E-22
  0.2155000      1.4142919E-22
  0.2160000      1.4830213E-22
  0.2165000      1.4972021E-22
  0.2170000      1.4543975E-22
  0.2175000      1.3562555E-22
  0.2180000      1.2088592E-22
  0.2185000      1.0227543E-22
  0.2190000      8.1250016E-23
  0.2195000      5.9583800E-23
  0.2200000      3.9239819E-23
  0.2205000      2.2208058E-23
  0.2210000      1.0313959E-23
  0.2215000      5.0214795E-24
  0.2220000      7.2360720E-24
  0.2225000      1.7136302E-23
  0.2230000      3.4045318E-23
  0.2235000      5.6366699E-23
  0.2240000      8.1590665E-23
  0.2245000      1.0637869E-22
  0.2250000      1.2674361E-22
  0.2255000      1.3828713E-22
  0.2260000      1.3653063E-22
  0.2265000      1.1726556E-22
  0.2270000      7.6941517E-23
  0.2275000      1.3033289E-23
  0.2280000     -7.5623513E-23
  0.2285000     -1.8858090E-22
  0.2290000     -3.2361162E-22
  0.2295000     -4.7667257E-22
  0.2300000     -6.4198429E-22
  0.2305000     -8.1226703E-22
  0.2310000     -9.7907721E-22
  0.2315000     -1.1332393E-21
  0.2320000     -1.2653770E-21
  0.2325000     -1.3664261E-21
  0.2330000     -1.4281845E-21
  0.2335000     -1.4437646E-21
  0.2340000     -1.4079657E-21
  0.2345000     -1.3175235E-21
  0.2350000     -1.1711672E-21
  0.2355000     -9.6958523E-22
  0.2360000     -7.1516403E-22
  0.2365000     -4.1164171E-22
  0.2370000     -6.3700190E-23
  0.2375000      3.2354705E-22
  0.2380000      7.4495929E-22
  0.2385000      1.1957653E-21
  0.2390000      1.6717140E-21
  0.2395000      2.1691178E-21
  0.2400000      2.6846367E-21
  0.2405000      3.2148110E-21
  0.2410000      3.7553398E-21
  0.2415000      4.3002862E-21
  0.2420000      4.8410745E-21
  0.2425000      5.3654295E-21
  0.2430000      5.8565680E-21
  0.2435000      6.2923928E-21
  0.2440000      6.6451882E-21
  0.2445000      6.8816306E-21
  0.2450000      6.9633356E-21
  0.2455000      6.8480360E-21
  0.2460000      6.4912837E-21
  0.2465000      5.8488075E-21
  0.2470000      4.8791866E-21
  0.2475000      3.5471447E-21
  0.2480000      1.8268809E-21
  0.2485000     -2.9457763E-22
  0.2490000     -2.8141569E-21
  0.2495000     -5.7099926E-21
  0.2500000     -8.9392973E-21
  0.2505000     -1.2436983E-20
  0.2510000     -1.6115621E-20
  0.2515000     -1.9865888E-20
  0.2520000     -2.3558726E-20
  0.2525000     -2.7048438E-20
  0.2530000     -3.0176515E-20
  0.2535000     -3.2776877E-20
  0.2540000     -3.4681538E-20
  0.2545000     -3.5726709E-20
  0.2550000     -3.5759002E-20
  0.2555000     -3.4642095E-20
  0.2560000     -3.2262516E-20
  0.2565000     -2.8535159E-20
  0.2570000     -2.3408190E-20
  0.2575000     -1.6867264E-20
  0.2580000     -8.9382366E-21
  0.2585000      3.1024064E-22
  0.2590000      1.0764903E-20
  0.2595000      2.2267999E-20
  0.2600000      3.4616898E-20
  0.2605000      4.7564672E-20
  0.2610000      6.0821912E-20
  0.2615000      7.4058753E-20
  0.2620000      8.6906930E-20
  0.2625000      9.8964561E-20
  0.2630000      1.0980008E-19
  0.2635000      1.1895864E-19
  0.2640000      1.2596937E-19
  0.2645000      1.3035529E-19
  0.2650000      1.3164449E-19
  0.2655000      1.2938430E-19
  0.2660000      1.2315815E-19
  0.2665000      1.1260277E-19
  0.2670000      9.7429365E-20
  0.2675000      7.7444384E-20
  0.2680000      5.2572213E-20
  0.2685000      2.2877328E-20
  0.2690000     -1.1416522E-20
  0.2695000     -4.9907483E-20
  0.2700000     -9.2004172E-20
  0.2705000     -1.3691519E-19
  0.2710000     -1.8364990E-19
  0.2715000     -2.3102570E-19
  0.2720000     -2.7768099E-19
  0.2725000     -3.2210030E-19
  0.2730000     -3.6265017E-19
  0.2735000     -3.9761595E-19
  0.2740000     -4.2525797E-19
  0.2745000     -4.4386310E-19
  0.2750000     -4.5180714E-19
  0.2755000     -4.4761984E-19
  0.2760000     -4.3004743E-19
  0.2765000     -3.9811789E-19
  0.2770000     -3.5119481E-19
  0.2775000     -2.8902841E-19
  0.2780000     -2.1179991E-19
  0.2785000     -1.2015328E-19
  0.2790000     -1.5208953E-20
  0.2795000      1.0142730E-19
  0.2800000      2.2766944E-19
  0.2805000      3.6098519E-19
  0.2810000      4.9841613E-19
  0.2815000      6.3663134E-19
  0.2820000      7.7199562E-19
  0.2825000      9.0062567E-19
  0.2830000      1.0184809E-18
  0.2835000      1.1214401E-18
  0.2840000      1.2054032E-18
  0.2845000      1.2663772E-18
  0.2850000      1.3005917E-18
  0.2855000      1.3045882E-18
  0.2860000      1.2753406E-18
  0.2865000      1.2103416E-18
  0.2870000      1.1077236E-18
  0.2875000      9.6635179E-19
  0.2880000      7.8591205E-19
  0.2885000      5.6702011E-19
  0.2890000      3.1129146E-19
  0.2895000      2.1406116E-20
  0.2900000     -2.9884058E-19
  0.2905000     -6.4449581E-19
  0.2910000     -1.0094488E-18
  0.2915000     -1.3864527E-18
  0.2920000     -1.7671560E-18
  0.2925000     -2.1422197E-18
  0.2930000     -2.5014064E-18
  0.2935000     -2.8337628E-18
  0.2940000     -3.1278245E-18
  0.2945000     -3.3718487E-18
  0.2950000     -3.5541234E-18
  0.2955000     -3.6632628E-18
  0.2960000     -3.6885832E-18
  0.2965000     -3.6204422E-18
  0.2970000     -3.4506830E-18
  0.2975000     -3.1729922E-18
  0.2980000     -2.7833257E-18
  0.2985000     -2.2802489E-18
  0.2990000     -1.6653050E-18
  0.2995000     -9.4329454E-19
  0.3000000     -1.2249747E-19
  0.3005000      7.8515808E-19
  0.3010000      1.7640601E-18
  0.3015000      2.7949624E-18
  0.3020000      3.8551240E-18
  0.3025000      4.9185888E-18
  0.3030000      5.9566748E-18
  0.3035000      6.9384712E-18
  0.3040000      7.8314830E-18
  0.3045000      8.6024939E-18
  0.3050000      9.2184283E-18
  0.3055000      9.6472851E-18
  0.3060000      9.8592559E-18
  0.3065000      9.8277775E-18
  0.3070000      9.5305757E-18
  0.3075000      8.9507816E-18
  0.3080000      8.0778141E-18
  0.3085000      6.9083155E-18
  0.3090000      5.4469136E-18
  0.3095000      3.7066898E-18
  0.3100000      1.7096359E-18
  0.3105000     -5.1327084E-19
  0.3110000     -2.9222314E-18
  0.3115000     -5.4688666E-18
  0.3120000     -8.0970146E-18
  0.3125000     -1.0743497E-17
  0.3130000     -1.3339287E-17
  0.3135000     -1.5811064E-17
  0.3140000     -1.8082588E-17
  0.3145000     -2.0076582E-17
  0.3150000     -2.1716661E-17
  0.3155000     -2.2929265E-17
  0.3160000     -2.3645917E-17
  0.3165000     -2.3805252E-17
  0.3170000     -2.3355150E-17
  0.3175000     -2.2254760E-17
  0.3180000     -2.0476376E-17
  0.3185000     -1.8007507E-17
  0.3190000     -1.4852142E-17
  0.3195000     -1.1032223E-17
  0.3200000     -6.5887980E-18
  0.3205000     -1.5826321E-18
  0.3210000      3.9055304E-18
  0.3215000      9.7749836E-18
  0.3220000      1.5905606E-17
  0.3225000      2.2159237E-17
  0.3230000      2.8381344E-17
  0.3235000      3.4403269E-17
  0.3240000      4.0045335E-17
  0.3245000      4.5120515E-17
  0.3250000      4.9438593E-17
  0.3255000      5.2811065E-17
  0.3260000      5.5056549E-17
  0.3265000      5.6006785E-17
  0.3270000      5.5512541E-17
  0.3275000      5.3450075E-17
  0.3280000      4.9727528E-17
  0.3285000      4.4290946E-17
  0.3290000      3.7130063E-17
  0.3295000      2.8283247E-17
  0.3300000      1.7841381E-17
  0.3305000      5.9507382E-18
  0.3310000     -7.1851878E-18
  0.3315000     -2.1306664E-17
  0.3320000     -3.6099121E-17
  0.3325000     -5.1197821E-17
  0.3330000     -6.6193514E-17
  0.3335000     -8.0640706E-17
  0.3340000     -9.4068098E-17
  0.3345000     -1.0599032E-16
  0.3350000     -1.1592196E-16
  0.3355000     -1.2339200E-16
  0.3360000     -1.2796035E-16
  0.3365000     -1.2923412E-16
  0.3370000     -1.2688412E-16
  0.3375000     -1.2066044E-16
  0.3380000     -1.1040756E-16
  0.3385000     -9.6077366E-17
  0.3390000     -7.7739043E-17
  0.3395000     -5.5588377E-17
  0.3400000     -2.9950771E-17
  0.3405000     -1.2826783E-18
  0.3410000      2.9831815E-17
  0.3415000      6.2688114E-17
  0.3420000      9.6473612E-17
  0.3425000      1.3028346E-16
  0.3430000      1.6314031E-16
  0.3435000      1.9401793E-16
  0.3440000      2.2186858E-16
  0.3445000      2.4565149E-16
  0.3450000      2.6436401E-16
  0.3455000      2.7707364E-16
  0.3460000      2.8294971E-16
  0.3465000      2.8129488E-16
  0.3470000      2.7157374E-16
  0.3475000      2.5343829E-16
  0.3480000      2.2675210E-16
  0.3485000      1.9160742E-16
  0.3490000      1.4833739E-16
  0.3495000      9.7525044E-17
  0.3500000      4.0000850E-17
  0.3505000     -2.3160789E-17
  0.3510000     -9.0656335E-17
  0.3515000     -1.6097264E-16
  0.3520000     -2.3241247E-16
  0.3525000     -3.0312895E-16
  0.3530000     -3.7116330E-16
  0.3535000     -4.3449024E-16
  0.3540000     -4.9106444E-16
  0.3545000     -5.3887664E-16
  0.3550000     -5.7600369E-16
  0.3555000     -6.0066595E-16
  0.3560000     -6.1128589E-16
  0.3565000     -6.0653912E-16
  0.3570000     -5.8540697E-16
  0.3575000     -5.4722389E-16
  0.3580000     -4.9171729E-16
  0.3585000     -4.1905023E-16
  0.3590000     -3.2983214E-16
  0.3595000     -2.2515060E-16
  0.3600000     -1.0656553E-16
  0.3605000      2.3889266E-17
  0.3610000      1.6373555E-16
  0.3615000      3.1007152E-16
  0.3620000      4.5962692E-16
  0.3625000      6.0881695E-16
  0.3630000      7.5381364E-16
  0.3635000      8.9063280E-16
  0.3640000      1.0152171E-15
  0.3645000      1.1235435E-15
  0.3650000      1.2117297E-15
  0.3655000      1.2761362E-15
  0.3660000      1.3134918E-15
  0.3665000      1.3209777E-15
  0.3670000      1.2963599E-15
  0.3675000      1.2380498E-15
  0.3680000      1.1452129E-15
  0.3685000      1.0178236E-15
  0.3690000      8.5670686E-16
  0.3695000      6.6358869E-16
  0.3700000      4.4108126E-16
  0.3705000      1.9267866E-16
  0.3710000     -7.7288514E-17
  0.3715000     -3.6371740E-16
  0.3720000     -6.6080720E-16
  0.3725000     -9.6219237E-16
  0.3730000     -1.2610515E-15
  0.3735000     -1.5502562E-15
  0.3740000     -1.8225439E-15
  0.3745000     -2.0706654E-15
  0.3750000     -2.2875736E-15
  0.3755000     -2.4666002E-15
  0.3760000     -2.6016204E-15
  0.3765000     -2.6871974E-15
  0.3770000     -2.7187761E-15
  0.3775000     -2.6927847E-15
  0.3780000     -2.6067382E-15
  0.3785000     -2.4593699E-15
  0.3790000     -2.2506527E-15
  0.3795000     -1.9818445E-15
  0.3800000     -1.6555275E-15
  0.3805000     -1.2755447E-15
  0.3810000     -8.4697397E-16
  0.3815000     -3.7610574E-16
  0.3820000      1.2977070E-16
  0.3825000      6.6236081E-16
  0.3830000      1.2125712E-15
  0.3835000      1.7706326E-15
  0.3840000      2.3262504E-15
  0.3845000      2.8687879E-15
  0.3850000      3.3874457E-15
  0.3855000      3.8713865E-15
  0.3860000      4.3099654E-15
  0.3865000      4.6928721E-15
  0.3870000      5.0102842E-15
  0.3875000      5.2530430E-15
  0.3880000      5.4128442E-15
  0.3885000      5.4822823E-15
  0.3890000      5.4551209E-15
  0.3895000      5.3263503E-15
  0.3900000      5.0923125E-15
  0.3905000      4.7508905E-15
  0.3910000      4.3014912E-15
  0.3915000      3.7452536E-15
  0.3920000      3.0850884E-15
  0.3925000      2.3257409E-15
  0.3930000      1.4739523E-15
  0.3935000      5.3831654E-16
  0.3940000     -4.7058779E-16
  0.3945000     -1.5402234E-15
  0.3950000     -2.6562307E-15
  0.3955000     -3.8024541E-15
  0.3960000     -4.9610737E-15
  0.3965000     -6.1127645E-15
  0.3970000     -7.2369326E-15
  0.3975000     -8.3117632E-15
  0.3980000     -9.3149509E-15
  0.3985000     -1.0223556E-14
  0.3990000     -1.1014668E-14
  0.3995000     -1.1665647E-14
  0.4000000     -1.2154526E-14
  0.4005000     -1.2460938E-14
  0.4010000     -1.2565589E-14
  0.4015000     -1.2451820E-14
  0.4020000     -1.2105360E-14
  0.4025000     -1.1514853E-14
  0.4030000     -1.0672678E-14
  0.4035000     -9.5747224E-15
  0.4040000     -8.2216296E-15
  0.4045000     -6.6182352E-15
  0.4050000     -4.7742559E-15
  0.4055000     -2.7043467E-15
  0.4060000     -4.2870341E-16
  0.4065000      2.0277571E-15
  0.4070000      4.6345547E-15
  0.4075000      7.3564498E-15
  0.4080000      1.0153438E-14
  0.4085000      1.2980959E-14
  0.4090000      1.5789985E-14
  0.4095000      1.8528714E-14
  0.4100000      2.1141973E-14
  0.4105000      2.3572525E-14
  0.4110000      2.5761934E-14
  0.4115000      2.7651446E-14
  0.4120000      2.9182657E-14
  0.4125000      3.0299466E-14
  0.4130000      3.0948497E-14
  0.4135000      3.1080698E-14
  0.4140000      3.0652228E-14
  0.4145000      2.9626902E-14
  0.4150000      2.7975701E-14
  0.4155000      2.5680118E-14
  0.4160000      2.2731207E-14
  0.4165000      1.9131698E-14
  0.4170000      1.4897634E-14
  0.4175000      1.0057828E-14
  0.4180000      4.6553257E-15
  0.4185000     -1.2523915E-15
  0.4190000     -7.5936080E-15
  0.4195000     -1.4282510E-14
  0.4200000     -2.1219442E-14
  0.4205000     -2.8292002E-14
  0.4210000     -3.5376141E-14
  0.4215000     -4.2338034E-14
  0.4220000     -4.9035042E-14
  0.4225000     -5.5319878E-14
  0.4230000     -6.1041043E-14
  0.4235000     -6.6046493E-14
  0.4240000     -7.0187244E-14
  0.4245000     -7.3319667E-14
  0.4250000     -7.5309415E-14
  0.4255000     -7.6033838E-14
  0.4260000     -7.5386508E-14
  0.4265000     -7.3280337E-14
  0.4270000     -6.9650903E-14
  0.4275000     -6.4457574E-14
  0.4280000     -5.7687552E-14
  0.4285000     -4.9357081E-14
  0.4290000     -3.9513640E-14
  0.4295000     -2.8238098E-14
  0.4300000     -1.5641897E-14
  0.4305000     -1.8705674E-15
  0.4310000      1.2898259E-14
  0.4315000      2.8457156E-14
  0.4320000      4.4569264E-14
  0.4325000      6.0972996E-14
  0.4330000      7.7383426E-14
  0.4335000      9.3496432E-14
  0.4340000      1.0899419E-13
  0.4345000      1.2354851E-13
  0.4350000      1.3683144E-13
  0.4355000      1.4850995E-13
  0.4360000      1.5826614E-13
  0.4365000      1.6579195E-13
  0.4370000      1.7080247E-13
  0.4375000      1.7303865E-13
  0.4380000      1.7227474E-13
  0.4385000      1.6832697E-13
  0.4390000      1.6105457E-13
  0.4395000      1.5036999E-13
  0.4400000      1.3624166E-13
  0.4405000      1.1869700E-13
  0.4410000      9.7830334E-14
  0.4415000      7.3800598E-14
  0.4420000      4.6833346E-14
  0.4425000      1.7226600E-14
  0.4430000     -1.4656372E-14
  0.4435000     -4.8386201E-14
  0.4440000     -8.3470096E-14
  0.4445000     -1.1936033E-13
  0.4450000     -1.5545536E-13
  0.4455000     -1.9110970E-13
  0.4460000     -2.2564298E-13
  0.4465000     -2.5835071E-13
  0.4470000     -2.8851793E-13
  0.4475000     -3.1542669E-13
  0.4480000     -3.3836874E-13
  0.4485000     -3.5666942E-13
  0.4490000     -3.6969199E-13
  0.4495000     -3.7685033E-13
  0.4500000     -3.7764239E-13
  0.4505000     -3.7163889E-13
  0.4510000     -3.5851427E-13
  0.4515000     -3.3805342E-13
  0.4520000     -3.1015931E-13
  0.4525000     -2.7487463E-13
  0.4530000     -2.3237456E-13
  0.4535000     -1.8298201E-13
  0.4540000     -1.2716683E-13
  0.4545000     -6.5549108E-14
  0.4550000      1.1087149E-15
  0.4555000      7.1899572E-14
  0.4560000      1.4578418E-13
  0.4565000      2.2160960E-13
  0.4570000      2.9810518E-13
  0.4575000      3.7391696E-13
  0.4580000      4.4761615E-13
  0.4585000      5.1773348E-13
  0.4590000      5.8277347E-13
  0.4595000      6.4123630E-13
  0.4600000      6.9166472E-13
  0.4605000      7.3265092E-13
  0.4610000      7.6287701E-13
  0.4615000      7.8114804E-13
  0.4620000      7.8641108E-13
  0.4625000      7.7779525E-13
  0.4630000      7.5462553E-13
  0.4635000      7.1645489E-13
  0.4640000      6.6308423E-13
  0.4645000      5.9458103E-13
  0.4650000      5.1129722E-13
  0.4655000      4.1387304E-13
  0.4660000      3.0324877E-13
  0.4665000      1.8066190E-13
  0.4670000      4.7650858E-14
  0.4675000     -9.3971482E-14
  0.4680000     -2.4211991E-13
  0.4685000     -3.9446698E-13
  0.4690000     -5.4846568E-13
  0.4695000     -7.0139099E-13
  0.4700000     -8.5037522E-13
  0.4705000     -9.9245872E-13
  0.4710000     -1.1246355E-12
  0.4715000     -1.2439080E-12
  0.4720000     -1.3473368E-12
  0.4725000     -1.4321222E-12
  0.4730000     -1.4956356E-12
  0.4735000     -1.5355078E-12
  0.4740000     -1.5496653E-12
  0.4745000     -1.5364124E-12
  0.4750000     -1.4944583E-12
  0.4755000     -1.4229985E-12
  0.4760000     -1.3217211E-12
  0.4765000     -1.1908704E-12
  0.4770000     -1.0312598E-12
  0.4775000     -8.4428146E-13
  0.4780000     -6.3193466E-13
  0.4785000     -3.9679872E-13
  0.4790000     -1.4200902E-13
  0.4795000      1.2873422E-13
  0.4800000      4.1126241E-13
  0.4805000      7.0094874E-13
  0.4810000      9.9278691E-13
  0.4815000      1.2814973E-12
  0.4820000      1.5615555E-12
  0.4825000      1.8273438E-12
  0.4830000      2.0732055E-12