  0.0000000E+00  0.0000000E+00
  5.0000002E-04  0.0000000E+00
  1.0000000E-03  0.0000000E+00
  1.5000000E-03  0.0000000E+00
  2.0000001E-03  0.0000000E+00
  2.4999999E-03  0.0000000E+00
  3.0000000E-03  0.0000000E+00
  3.5000001E-03  0.0000000E+00
  4.0000002E-03  0.0000000E+00
  4.4999998E-03  0.0000000E+00
  4.9999999E-03  0.0000000E+00
  5.5000000E-03  0.0000000E+00
  6.0000001E-03  0.0000000E+00
  6.5000001E-03  0.0000000E+00
  7.0000002E-03  0.0000000E+00
  7.4999998E-03  0.0000000E+00
  8.0000004E-03  0.0000000E+00
  8.5000005E-03  0.0000000E+00
  8.9999996E-03  0.0000000E+00
  9.4999997E-03  0.0000000E+00
  9.9999998E-03  0.0000000E+00
  1.0500000E-02  0.0000000E+00
  1.1000000E-02  0.0000000E+00
  1.1500000E-02  0.0000000E+00
  1.2000000E-02  0.0000000E+00
  1.2500000E-02  0.0000000E+00
  1.3000000E-02  0.0000000E+00
  1.3500000E-02  0.0000000E+00
  1.4000000E-02  0.0000000E+00
  1.4500000E-02  0.0000000E+00
  1.5000000E-02  0.0000000E+00
  1.5500000E-02  0.0000000E+00
  1.6000001E-02  0.0000000E+00
  1.6500000E-02  0.0000000E+00
  1.7000001E-02  0.0000000E+00
  1.7500000E-02  0.0000000E+00
  1.7999999E-02  0.0000000E+00
  1.8500000E-02  0.0000000E+00
  1.8999999E-02  0.0000000E+00
  1.9500000E-02  0.0000000E+00
  2.0000000E-02  0.0000000E+00
  2.0500001E-02  0.0000000E+00
  2.1000000E-02  0.0000000E+00
  2.1500001E-02  0.0000000E+00
  2.2000000E-02  0.0000000E+00
  2.2500001E-02  0.0000000E+00
  2.3000000E-02  0.0000000E+00
  2.3499999E-02  0.0000000E+00
  2.4000000E-02  0.0000000E+00
  2.4499999E-02  0.0000000E+00
  2.5000000E-02  0.0000000E+00
  2.5500000E-02  0.0000000E+00
  2.6000001E-02  0.0000000E+00
  2.6500000E-02  0.0000000E+00
  2.7000001E-02  0.0000000E+00
  2.7500000E-02  0.0000000E+00
  2.8000001E-02  0.0000000E+00
  2.8500000E-02  0.0000000E+00
  2.8999999E-02  0.0000000E+00
  2.9500000E-02  0.0000000E+00
  2.9999999E-02  0.0000000E+00
  3.0500000E-02  0.0000000E+00
  3.0999999E-02  0.0000000E+00
  3.1500001E-02  0.0000000E+00
  3.2000002E-02  0.0000000E+00
  3.2499999E-02  0.0000000E+00
  3.3000000E-02  0.0000000E+00
  3.3500001E-02  0.0000000E+00
  3.4000002E-02  0.0000000E+00
  3.4499999E-02  0.0000000E+00
  3.5000000E-02  0.0000000E+00
  3.5500001E-02  0.0000000E+00
  3.5999998E-02  0.0000000E+00
  3.6499999E-02  0.0000000E+00
  3.7000000E-02  0.0000000E+00
  3.7500001E-02  0.0000000E+00
  3.7999999E-02  0.0000000E+00
  3.8500000E-02  0.0000000E+00
  3.9000001E-02  0.0000000E+00
  3.9500002E-02  0.0000000E+00
  3.9999999E-02  0.0000000E+00
  4.0500000E-02  0.0000000E+00
  4.1000001E-02  0.0000000E+00
  4.1499998E-02  0.0000000E+00
  4.1999999E-02  0.0000000E+00
  4.2500000E-02  0.0000000E+00
  4.3000001E-02  0.0000000E+00
  4.3499999E-02  0.0000000E+00
  4.4000000E-02  0.0000000E+00
  4.4500001E-02  0.0000000E+00
  4.5000002E-02  0.0000000E+00
  4.5499999E-02  0.0000000E+00
  4.6000000E-02  0.0000000E+00
  4.6500001E-02  0.0000000E+00
  4.6999998E-02  0.0000000E+00
  4.7499999E-02  0.0000000E+00
  4.8000000E-02  0.0000000E+00
  4.8500001E-02  0.0000000E+00
  4.8999999E-02  0.0000000E+00
  4.9500000E-02  0.0000000E+00
  5.0000001E-02  0.0000000E+00
  5.0500002E-02  0.0000000E+00
  5.0999999E-02  0.0000000E+00
  5.1500000E-02  0.0000000E+00
  5.2000001E-02  0.0000000E+00
  5.2499998E-02  0.0000000E+00
  5.2999999E-02  0.0000000E+00
  5.3500000E-02  0.0000000E+00
  5.4000001E-02  0.0000000E+00
  5.4499999E-02  0.0000000E+00
  5.5000000E-02  0.0000000E+00
  5.5500001E-02  0.0000000E+00
  5.6000002E-02  0.0000000E+00
  5.6499999E-02  0.0000000E+00
  5.7000000E-02  2.5122888E-38
  5.7500001E-02  5.3514613E-38
  5.7999998E-02  1.6829190E-37
  5.8499999E-02  2.5011962E-37
  5.9000000E-02  1.7445381E-37
  5.9500001E-02  6.6930692E-37
  5.9999999E-02  3.3403734E-37
  6.0500000E-02  5.4397465E-37
  6.1000001E-02 -2.1119749E-37
  6.1500002E-02 -1.0107043E-36
  6.1999999E-02 -1.7359854E-36
  6.2500000E-02  1.0462964E-36
  6.3000001E-02  9.8484630E-36
  6.3500002E-02  3.3586514E-35
  6.4000003E-02  3.8363131E-35
  6.4499997E-02  8.4005217E-35
  6.4999998E-02  3.5480549E-35
  6.5499999E-02  2.1067100E-35
  6.6000000E-02 -3.1595342E-36
  6.6500001E-02 -1.2071681E-35
  6.7000002E-02 -1.0334346E-34
  6.7500003E-02 -2.5245305E-34
  6.8000004E-02 -2.4688775E-34
  6.8499997E-02 -3.8345744E-34
  6.8999998E-02 -3.8125189E-34
  6.9499999E-02 -3.8462869E-34
  7.0000000E-02 -3.2719343E-34
  7.0500001E-02 -3.1409489E-34
  7.1000002E-02 -7.4290732E-35
  7.1500003E-02  7.0257768E-34
  7.1999997E-02  1.0106501E-33
  7.2499998E-02  8.7625812E-34
  7.2999999E-02  1.7306489E-34
  7.3500000E-02  2.5649121E-34
  7.4000001E-02  1.2826804E-33
  7.4500002E-02  8.5303889E-34
  7.5000003E-02 -6.7109765E-35
  7.5499997E-02 -1.9199083E-33
  7.5999998E-02 -2.2426491E-33
  7.6499999E-02 -2.9103561E-33
  7.7000000E-02 -3.6923031E-33
  7.7500001E-02 -3.7222322E-33
  7.8000002E-02 -3.4705538E-33
  7.8500003E-02 -3.2705445E-33
  7.9000004E-02 -1.4469270E-33
  7.9499997E-02  1.4681639E-35
  7.9999998E-02  1.8458949E-33
  8.0499999E-02  4.5511336E-33
  8.1000000E-02  6.3016533E-33
  8.1500001E-02  8.1646120E-33
  8.2000002E-02  9.6572018E-33
  8.2500003E-02  8.8886585E-33
  8.2999997E-02  7.3751992E-33
  8.3499998E-02  4.7226426E-33
  8.3999999E-02  3.4380958E-33
  8.4500000E-02  5.8842422E-33
  8.5000001E-02  1.3786954E-32
  8.5500002E-02  2.5489666E-32
  8.6000003E-02  3.9470147E-32
  8.6499996E-02  5.3614380E-32
  8.6999997E-02  6.4990356E-32
  8.7499999E-02  7.1928499E-32
  8.8000000E-02  6.9171101E-32
  8.8500001E-02  5.3317391E-32
  8.9000002E-02  1.8210143E-32
  8.9500003E-02 -3.5522525E-32
  9.0000004E-02 -1.1096401E-31
  9.0499997E-02 -2.0475005E-31
  9.0999998E-02 -3.1218814E-31
  9.1499999E-02 -4.2381640E-31
  9.2000000E-02 -5.2660261E-31
  9.2500001E-02 -6.0389442E-31
  9.3000002E-02 -6.3688961E-31
  9.3500003E-02 -6.0578382E-31
  9.3999997E-02 -4.9275599E-31
  9.4499998E-02 -2.8403566E-31
  9.4999999E-02  2.6675144E-32
  9.5500000E-02  4.3561540E-31
  9.6000001E-02  9.2733546E-31
  9.6500002E-02  1.4714496E-30
  9.7000003E-02  2.0243200E-30
  9.7499996E-02  2.5294359E-30
  9.7999997E-02  2.9207416E-30
  9.8499998E-02  3.1279024E-30
  9.8999999E-02  3.0826841E-30
  9.9500000E-02  2.7269733E-30
  0.1000000      2.0210775E-30
  0.1005000      9.5198501E-31
  0.1010000     -4.6029890E-31
  0.1015000     -2.1579793E-30
  0.1020000     -4.0448516E-30
  0.1025000     -5.9893006E-30
  0.1030000     -7.8316151E-30
  0.1035000     -9.3955875E-30
  0.1040000     -1.0503382E-29
  0.1045000     -1.0992610E-29
  0.1050000     -1.0733474E-29
  0.1055000     -9.6445057E-30
  0.1060000     -7.7037205E-30
  0.1065000     -4.9545729E-30
  0.1070000     -1.5041908E-30
  0.1075000      2.4859986E-30
  0.1080000      6.8164785E-30
  0.1085000      1.1272136E-29
  0.1090000      1.5646204E-29
  0.1095000      1.9763688E-29
  0.1100000      2.3498801E-29
  0.1105000      2.6782514E-29
  0.1110000      2.9597342E-29
  0.1115000      3.1956616E-29
  0.1120000      3.3868598E-29
  0.1125000      3.5289714E-29
  0.1130000      3.6071082E-29
  0.1135000      3.5908747E-29
  0.1140000      3.4304237E-29
  0.1145000      3.0551568E-29
  0.1150000      2.3758043E-29
  0.1155000      1.2906803E-29
  0.1160000     -3.0346233E-30
  0.1165000     -2.4957970E-29
  0.1170000     -5.3427794E-29
  0.1175000     -8.8471462E-29
  0.1180000     -1.2937298E-28
  0.1185000     -1.7450022E-28
  0.1190000     -2.2118831E-28
  0.1195000     -2.6571981E-28
  0.1200000     -3.0340881E-28
  0.1205000     -3.2882565E-28
  0.1210000     -3.3613804E-28
  0.1215000     -3.1957692E-28
  0.1220000     -2.7399327E-28
  0.1225000     -1.9545076E-28
  0.1230000     -8.1819071E-29
  0.1235000      6.6710674E-29
  0.1240000      2.4722809E-28
  0.1245000      4.5389075E-28
  0.1250000      6.7791405E-28
  0.1255000      9.0778689E-28
  0.1260000      1.1296920E-27
  0.1265000      1.3280938E-27
  0.1270000      1.4864607E-27
  0.1275000      1.5879972E-27
  0.1280000      1.6163901E-27
  0.1285000      1.5564878E-27
  0.1290000      1.3948570E-27
  0.1295000      1.1202907E-27
  0.1300000      7.2430696E-28
  0.1305000      2.0170456E-28
  0.1310000     -4.4867220E-28
  0.1315000     -1.2228053E-27
  0.1320000     -2.1100030E-27
  0.1325000     -3.0909088E-27
  0.1330000     -4.1351157E-27
  0.1335000     -5.1986199E-27
  0.1340000     -6.2214263E-27
  0.1345000     -7.1257944E-27
  0.1350000     -7.8158405E-27
  0.1355000     -8.1790778E-27
  0.1360000     -8.0905613E-27
  0.1365000     -7.4204286E-27
  0.1370000     -6.0446270E-27
  0.1375000     -3.8594430E-27
  0.1380000     -7.9871950E-28
  0.1385000      3.1472099E-27
  0.1390000      7.9121393E-27
  0.1395000      1.3337069E-26
  0.1400000      1.9157496E-26
  0.1405000      2.4998474E-26
  0.1410000      3.0379517E-26
  0.1415000      3.4731663E-26
  0.1420000      3.7428322E-26
  0.1425000      3.7829729E-26
  0.1430000      3.5340078E-26
  0.1435000      2.9473803E-26
  0.1440000      1.9927462E-26
  0.1445000      6.6496999E-27
  0.1450000     -1.0097051E-26
  0.1455000     -2.9691366E-26
  0.1460000     -5.1132161E-26
  0.1465000     -7.3048927E-26
  0.1470000     -9.3748933E-26
  0.1475000     -1.1130210E-25
  0.1480000     -1.2366377E-25
  0.1485000     -1.2883000E-25
  0.1490000     -1.2501636E-25
  0.1495000     -1.1084784E-25
  0.1500000     -8.5543929E-26
  0.1505000     -4.9083477E-26
  0.1510000     -2.3276974E-27
  0.1515000      5.2910158E-26
  0.1520000      1.1386470E-25
  0.1525000      1.7689742E-25
  0.1530000      2.3765460E-25
  0.1535000      2.9130296E-25
  0.1540000      3.3283178E-25
  0.1545000      3.5740122E-25
  0.1550000      3.6071809E-25
  0.1555000      3.3941236E-25
  0.1560000      2.9137805E-25
  0.1565000      2.1606590E-25
  0.1570000      1.1468843E-25
  0.1575000     -9.6714555E-27
  0.1580000     -1.5206519E-25
  0.1585000     -3.0579969E-25
  0.1590000     -4.6267165E-25
  0.1595000     -6.1330321E-25
  0.1600000     -7.4757005E-25
  0.1605000     -8.5508992E-25
  0.1610000     -9.2576348E-25
  0.1615000     -9.5034310E-25
  0.1620000     -9.2100014E-25
  0.1625000     -8.3188725E-25
  0.1630000     -6.7967920E-25
  0.1635000     -4.6406764E-25
  0.1640000     -1.8818977E-25
  0.1645000      1.4100537E-25
  0.1650000      5.1251963E-25
  0.1655000      9.1120022E-25
  0.1660000      1.3178412E-24
  0.1665000      1.7095192E-24
  0.1670000      2.0602177E-24
  0.1675000      2.3418320E-24
  0.1680000      2.5255021E-24
  0.1685000      2.5833682E-24
  0.1690000      2.4906514E-24
  0.1695000      2.2280250E-24
  0.1700000      1.7841050E-24
  0.1705000      1.1579528E-24
  0.1710000      3.6122562E-25
  0.1715000     -5.8014537E-25
  0.1720000     -1.6251348E-24
  0.1725000     -2.7179080E-24
  0.1730000     -3.7894141E-24
  0.1735000     -4.7604577E-24
  0.1740000     -5.5462369E-24
  0.1745000     -6.0623223E-24
  0.1750000     -6.2316655E-24
  0.1755000     -5.9923314E-24
  0.1760000     -5.3051484E-24
  0.1765000     -4.1608177E-24
  0.1770000     -2.5854301E-24
  0.1775000     -6.4376458E-25
  0.1780000      1.5604597E-24
  0.1785000      3.8877499E-24
  0.1790000      6.1699174E-24
  0.1795000      8.2207416E-24
  0.1800000      9.8499587E-24
  0.1805000      1.0879648E-23
  0.1810000      1.1161698E-23
  0.1815000      1.0594981E-23
  0.1820000      9.1403246E-24
  0.1825000      6.8316056E-24
  0.1830000      3.7812971E-24
  0.1835000      1.7915349E-25
  0.1840000     -3.7167087E-24
  0.1845000     -7.5964268E-24
  0.1850000     -1.1122080E-23
  0.1855000     -1.3956879E-23
  0.1860000     -1.5797476E-23
  0.1865000     -1.6406488E-23
  0.1870000     -1.5642088E-23
  0.1875000     -1.3480756E-23
  0.1880000     -1.0030297E-23
  0.1885000     -5.5305188E-24
  0.1890000     -3.3986240E-25
  0.1895000      5.0922131E-24
  0.1900000      1.0265781E-23
  0.1905000      1.4680754E-23
  0.1910000      1.7893248E-23
  0.1915000      1.9571530E-23
  0.1920000      1.9545592E-23
  0.1925000      1.7843486E-23
  0.1930000      1.4708853E-23
  0.1935000      1.0593899E-23
  0.1940000      6.1262674E-24
  0.1945000      2.0485187E-24
  0.1950000     -8.6600499E-25
  0.1955000     -1.9150218E-24
  0.1960000     -5.7833301E-25
  0.1965000      3.3746432E-24
  0.1970000      9.7928562E-24
  0.1975000      1.8081744E-23
  0.1980000      2.7182386E-23
  0.1985000      3.5603826E-23
  0.1990000      4.1511972E-23
  0.1995000      4.2878244E-23
  0.2000000      3.7680459E-23
  0.2005000      2.4144472E-23
  0.2010000      1.0085550E-24
  0.2015000     -3.2213479E-23
  0.2020000     -7.4998054E-23
  0.2025000     -1.2563688E-22
  0.2030000     -1.8114723E-22
  0.2035000     -2.3729317E-22
  0.2040000     -2.8873516E-22
  0.2045000     -3.2931330E-22
  0.2050000     -3.5246242E-22
  0.2055000     -3.5174013E-22
  0.2060000     -3.2143664E-22
  0.2065000     -2.5722543E-22
  0.2070000     -1.5680001E-22
  0.2075000     -2.0440290E-23
  0.2080000      1.4855459E-22
  0.2085000      3.4362344E-22
  0.2090000      5.5493308E-22
  0.2095000      7.6964203E-22
  0.2100000      9.7244886E-22
  0.2105000      1.1464116E-21
  0.2110000      1.2740144E-21
  0.2115000      1.3384175E-21
  0.2120000      1.3248118E-21
  0.2125000      1.2217906E-21
  0.2130000      1.0226145E-21
  0.2135000      7.2628301E-22
  0.2140000      3.3828421E-22
  0.2145000     -1.2904197E-22
  0.2150000     -6.5661202E-22
  0.2155000     -1.2191943E-21
  0.2160000     -1.7865003E-21
  0.2165000     -2.3247237E-21
  0.2170000     -2.7984451E-21
  0.2175000     -3.1727981E-21
  0.2180000     -3.4157410E-21
  0.2185000     -3.5002919E-21
  0.2190000     -3.4065434E-21
  0.2195000     -3.1233294E-21
  0.2200000     -2.6493848E-21
  0.2205000     -1.9939179E-21
  0.2210000     -1.1765086E-21
  0.2215000     -2.2635906E-22
  0.2220000      8.1908238E-22
  0.2225000      1.9160318E-21
  0.2230000      3.0166911E-21
  0.2235000      4.0717731E-21
  0.2240000      5.0330976E-21
  0.2245000      5.8560381E-21
  0.2250000      6.5016521E-21
  0.2255000      6.9383377E-21
  0.2260000      7.1429607E-21
  0.2265000      7.1013367E-21
  0.2270000      6.8080995E-21
  0.2275000      6.2660640E-21
  0.2280000      5.4851514E-21
  0.2285000      4.4809896E-21
  0.2290000      3.2735156E-21
  0.2295000      1.8856170E-21
  0.2300000      3.4200990E-22
  0.2305000     -1.3314307E-21
  0.2310000     -3.1078171E-21
  0.2315000     -4.9590342E-21
  0.2320000     -6.8548538E-21
  0.2325000     -8.7618824E-21
  0.2330000     -1.0642159E-20
  0.2335000     -1.2451929E-20
  0.2340000     -1.4140546E-20
  0.2345000     -1.5650036E-20
  0.2350000     -1.6915234E-20
  0.2355000     -1.7864930E-20
  0.2360000     -1.8423873E-20
  0.2365000     -1.8515777E-20
  0.2370000     -1.8067206E-20
  0.2375000     -1.7011914E-20
  0.2380000     -1.5295783E-20
  0.2385000     -1.2881504E-20
  0.2390000     -9.7531549E-21
  0.2395000     -5.9194592E-21
  0.2400000     -1.4165707E-21
  0.2405000      3.6910374E-21
  0.2410000      9.3112103E-21
  0.2415000      1.5325980E-20
  0.2420000      2.1595301E-20
  0.2425000      2.7961765E-20
  0.2430000      3.4256192E-20
  0.2435000      4.0303548E-20
  0.2440000      4.5928457E-20
  0.2445000      5.0960287E-20
  0.2450000      5.5236724E-20
  0.2455000      5.8605889E-20
  0.2460000      6.0927022E-20
  0.2465000      6.2068835E-20
  0.2470000      6.1907289E-20
  0.2475000      6.0321998E-20
  0.2480000      5.7192586E-20
  0.2485000      5.2395866E-20
  0.2490000      4.5804525E-20
  0.2495000      3.7288575E-20
  0.2500000      2.6719608E-20
  0.2505000      1.3979898E-20
  0.2510000     -1.0254006E-21
  0.2515000     -1.8351532E-20
  0.2520000     -3.7993740E-20
  0.2525000     -5.9865109E-20
  0.2530000     -8.3773763E-20
  0.2535000     -1.0939987E-19
  0.2540000     -1.3627731E-19
  0.2545000     -1.6377907E-19
  0.2550000     -1.9111141E-19
  0.2555000     -2.1731663E-19
  0.2560000     -2.4128553E-19
  0.2565000     -2.6178354E-19
  0.2570000     -2.7748634E-19
  0.2575000     -2.8702624E-19
  0.2580000     -2.8905090E-19
  0.2585000     -2.8228505E-19
  0.2590000     -2.6559777E-19
  0.2595000     -2.3807108E-19
  0.2600000     -1.9906488E-19
  0.2605000     -1.4827402E-19
  0.2610000     -8.5777641E-20
  0.2615000     -1.2071367E-20
  0.2620000      7.1911386E-20
  0.2625000      1.6479687E-19
  0.2630000      2.6478561E-19
  0.2635000      3.6968007E-19
  0.2640000      4.7692949E-19
  0.2645000      5.8368227E-19
  0.2650000      6.8685170E-19
  0.2655000      7.8317967E-19
  0.2660000      8.6931109E-19
  0.2665000      9.4185928E-19
  0.2670000      9.9747808E-19
  0.2675000      1.0329198E-18
  0.2680000      1.0451041E-18
  0.2685000      1.0311759E-18
  0.2690000      9.8856676E-19
  0.2695000      9.1506659E-19
  0.2700000      8.0889651E-19
  0.2705000      6.6879620E-19
  0.2710000      4.9412156E-19
  0.2715000      2.8496183E-19
  0.2720000      4.2263333E-20
  0.2725000     -2.3204133E-19
  0.2730000     -5.3488497E-19
  0.2735000     -8.6194986E-19
  0.2740000     -1.2075516E-18
  0.2745000     -1.5645546E-18
  0.2750000     -1.9243466E-18
  0.2755000     -2.2768576E-18
  0.2760000     -2.6106585E-18
  0.2765000     -2.9131552E-18
  0.2770000     -3.1708554E-18
  0.2775000     -3.3697456E-18
  0.2780000     -3.4957596E-18
  0.2785000     -3.5353269E-18
  0.2790000     -3.4759908E-18
  0.2795000     -3.3070929E-18
  0.2800000     -3.0204345E-18
  0.2805000     -2.6109832E-18
  0.2810000     -2.0774666E-18
  0.2815000     -1.4229377E-18
  0.2820000     -6.5517838E-19
  0.2825000      2.1306965E-19
  0.2830000      1.1640208E-18
  0.2835000      2.1750286E-18
  0.2840000      3.2189806E-18
  0.2845000      4.2649176E-18
  0.2850000      5.2789116E-18
  0.2855000      6.2251533E-18
  0.2860000      7.0671739E-18
  0.2865000      7.7692947E-18
  0.2870000      8.2980650E-18
  0.2875000      8.6237847E-18
  0.2880000      8.7219545E-18
  0.2885000      8.5746245E-18
  0.2890000      8.1715535E-18
  0.2895000      7.5111019E-18
  0.2900000      6.6008227E-18
  0.2905000      5.4577261E-18
  0.2910000      4.1080730E-18
  0.2915000      2.5868250E-18
  0.2920000      9.3662984E-19
  0.2925000     -7.9354047E-19
  0.2930000     -2.5501480E-18
  0.2935000     -4.2771537E-18
  0.2940000     -5.9182544E-18
  0.2945000     -7.4192766E-18
  0.2950000     -8.7306829E-18
  0.2955000     -9.8098186E-18
  0.2960000     -1.0623127E-17
  0.2965000     -1.1147955E-17
  0.2970000     -1.1373990E-17
  0.2975000     -1.1304158E-17
  0.2980000     -1.0954919E-17
  0.2985000     -1.0355986E-17
  0.2990000     -9.5492906E-18
  0.2995000     -8.5873888E-18
  0.3000000     -7.5311064E-18
  0.3005000     -6.4467574E-18
  0.3010000     -5.4028468E-18
  0.3015000     -4.4663762E-18
  0.3020000     -3.6990512E-18
  0.3025000     -3.1535370E-18
  0.3030000     -2.8696087E-18
  0.3035000     -2.8709464E-18
  0.3040000     -3.1622798E-18
  0.3045000     -3.7272791E-18
  0.3050000     -4.5272104E-18
  0.3055000     -5.5007850E-18
  0.3060000     -6.5645881E-18
  0.3065000     -7.6151248E-18
  0.3070000     -8.5316418E-18
  0.3075000     -9.1799338E-18
  0.3080000     -9.4175265E-18
  0.3085000     -9.0993217E-18
  0.3090000     -8.0840245E-18
  0.3095000     -6.2413383E-18
  0.3100000     -3.4590733E-18
  0.3105000      3.4948518E-19
  0.3110000      5.2382829E-18
  0.3115000      1.1222180E-17
  0.3120000      1.8270648E-17
  0.3125000      2.6303286E-17
  0.3130000      3.5185871E-17
  0.3135000      4.4728366E-17
  0.3140000      5.4684699E-17
  0.3145000      6.4754001E-17
  0.3150000      7.4584355E-17
  0.3155000      8.3778619E-17
  0.3160000      9.1902261E-17
  0.3165000      9.8493699E-17
  0.3170000      1.0307658E-16
  0.3175000      1.0517434E-16
  0.3180000      1.0432654E-16
  0.3185000      1.0010626E-16
  0.3190000      9.2139476E-17
  0.3195000      8.0124479E-17
  0.3200000      6.3851441E-17
  0.3205000      4.3222053E-17
  0.3210000      1.8266785E-17
  0.3215000     -1.0838404E-17
  0.3220000     -4.3759658E-17
  0.3225000     -7.9995413E-17
  0.3230000     -1.1887084E-16
  0.3235000     -1.5953933E-16
  0.3240000     -2.0098727E-16
  0.3245000     -2.4204710E-16
  0.3250000     -2.8141576E-16
  0.3255000     -3.1768169E-16
  0.3260000     -3.4935694E-16
  0.3265000     -3.7491740E-16
  0.3270000     -3.9284880E-16
  0.3275000     -4.0169566E-16
  0.3280000     -4.0011772E-16
  0.3285000     -3.8694638E-16
  0.3290000     -3.6124208E-16
  0.3295000     -3.2235221E-16
  0.3300000     -2.6996258E-16
  0.3305000     -2.0414623E-16
  0.3310000     -1.2540345E-16
  0.3315000     -3.4690483E-17
  0.3320000      6.6563343E-17
  0.3325000      1.7645138E-16
  0.3330000      2.9260494E-16
  0.3335000      4.1222018E-16
  0.3340000      5.3210864E-16
  0.3345000      6.4876106E-16
  0.3350000      7.5843102E-16
  0.3355000      8.5723239E-16
  0.3360000      9.4125530E-16
  0.3365000      1.0066857E-15
  0.3370000      1.0499437E-15
  0.3375000      1.0678150E-15
  0.3380000      1.0575902E-15
  0.3385000      1.0171941E-15
  0.3390000      9.4530878E-16
  0.3395000      8.4147641E-16
  0.3400000      7.0618635E-16
  0.3405000      5.4093605E-16
  0.3410000      3.4826014E-16
  0.3415000      1.3172731E-16
  0.3420000     -1.0409003E-16
  0.3425000     -3.5369584E-16
  0.3430000     -6.1077481E-16
  0.3435000     -8.6834218E-16
  0.3440000     -1.1189159E-15
  0.3445000     -1.3547283E-15
  0.3450000     -1.5679537E-15
  0.3455000     -1.7509575E-15
  0.3460000     -1.8965553E-15
  0.3465000     -1.9982712E-15
  0.3470000     -2.0505924E-15
  0.3475000     -2.0492029E-15
  0.3480000     -1.9912006E-15
  0.3485000     -1.8752685E-15
  0.3490000     -1.7018182E-15
  0.3495000     -1.4730702E-15
  0.3500000     -1.1930912E-15
  0.3505000     -8.6776371E-16
  0.3510000     -5.0469415E-16
  0.3515000     -1.1307597E-16
  0.3520000      2.9654110E-16
  0.3525000      7.1250723E-16
  0.3530000      1.1223952E-15
  0.3535000      1.5133644E-15
  0.3540000      1.8725607E-15
  0.3545000      2.1875367E-15
  0.3550000      2.4466784E-15
  0.3555000      2.6396369E-15
  0.3560000      2.7577438E-15
  0.3565000      2.7943748E-15
  0.3570000      2.7452973E-15
  0.3575000      2.6089295E-15
  0.3580000      2.3865494E-15
  0.3585000      2.0823983E-15
  0.3590000      1.7037218E-15
  0.3595000      1.2606828E-15
  0.3600000      7.6618386E-16
  0.3605000      2.3559729E-16
  0.3610000     -3.1361244E-16
  0.3615000     -8.6237102E-16
  0.3620000     -1.3905362E-15
  0.3625000     -1.8775231E-15
  0.3630000     -2.3030032E-15
  0.3635000     -2.6475940E-15
  0.3640000     -2.8936026E-15
  0.3645000     -3.0257616E-15
  0.3650000     -3.0318987E-15
  0.3655000     -2.9035942E-15
  0.3660000     -2.6367219E-15
  0.3665000     -2.2318871E-15
  0.3670000     -1.6947749E-15
  0.3675000     -1.0363241E-15
  0.3680000     -2.7271022E-16
  0.3685000      5.7477072E-16
  0.3690000      1.4800779E-15
  0.3695000      2.4129341E-15
  0.3700000      3.3395443E-15
  0.3705000      4.2234452E-15
  0.3710000      5.0265667E-15
  0.3715000      5.7103832E-15
  0.3720000      6.2371652E-15
  0.3725000      6.5713218E-15
  0.3730000      6.6807725E-15
  0.3735000      6.5382935E-15
  0.3740000      6.1228658E-15
  0.3745000      5.4207788E-15
  0.3750000      4.4267733E-15
  0.3755000      3.1448262E-15
  0.3760000      1.5888450E-15
  0.3765000     -2.1709313E-16
  0.3770000     -2.2385958E-15
  0.3775000     -4.4313067E-15
  0.3780000     -6.7415526E-15
  0.3785000     -9.1072567E-15
  0.3790000     -1.1459288E-14
  0.3795000     -1.3723076E-14
  0.3800000     -1.5820612E-14
  0.3805000     -1.7672436E-14
  0.3810000     -1.9200140E-14
  0.3815000     -2.0328730E-14
  0.3820000     -2.0989161E-14
  0.3825000     -2.1120894E-14
  0.3830000     -2.0674131E-14
  0.3835000     -1.9612194E-14
  0.3840000     -1.7913268E-14
  0.3845000     -1.5572052E-14
  0.3850000     -1.2600936E-14
  0.3855000     -9.0306418E-15
  0.3860000     -4.9104156E-15
  0.3865000     -3.0762566E-16
  0.3870000      4.6930873E-15
  0.3875000      9.9914253E-15
  0.3880000      1.5473286E-14
  0.3885000      2.1013442E-14
  0.3890000      2.6478313E-14
  0.3895000      3.1729322E-14
  0.3900000      3.6626497E-14
  0.3905000      4.1032058E-14
  0.3910000      4.4814240E-14
  0.3915000      4.7850992E-14
  0.3920000      5.0033711E-14
  0.3925000      5.1270027E-14
  0.3930000      5.1487043E-14
  0.3935000      5.0633553E-14
  0.3940000      4.8681562E-14
  0.3945000      4.5627947E-14
  0.3950000      4.1494447E-14
  0.3955000      3.6327173E-14
  0.3960000      3.0196172E-14
  0.3965000      2.3193514E-14
  0.3970000      1.5430601E-14
  0.3975000      7.0354997E-15
  0.3980000     -1.8503479E-15
  0.3985000     -1.1076004E-14
  0.3990000     -2.0485253E-14
  0.3995000     -2.9920575E-14
  0.4000000     -3.9226794E-14
  0.4005000     -4.8255250E-14
  0.4010000     -5.6867529E-14
  0.4015000     -6.4937815E-14
  0.4020000     -7.2355601E-14
  0.4025000     -7.9027076E-14
  0.4030000     -8.4876137E-14
  0.4035000     -8.9844324E-14
  0.4040000     -9.3889557E-14
  0.4045000     -9.6984812E-14
  0.4050000     -9.9115323E-14
  0.4055000     -1.0027533E-13
  0.4060000     -1.0046498E-13
  0.4065000     -9.9684644E-14
  0.4070000     -9.7932852E-14
  0.4075000     -9.5200059E-14
  0.4080000     -9.1465972E-14
  0.4085000     -8.6694662E-14
  0.4090000     -8.0834014E-14
  0.4095000     -7.3811969E-14
  0.4100000     -6.5537189E-14
  0.4105000     -5.5900170E-14
  0.4110000     -4.4775137E-14
  0.4115000     -3.2024679E-14
  0.4120000     -1.7504868E-14
  0.4125000     -1.0746971E-15
  0.4130000      1.7397322E-14
  0.4135000      3.8020236E-14
  0.4140000      6.0870268E-14
  0.4145000      8.5978621E-14
  0.4150000      1.1331624E-13
  0.4155000      1.4278195E-13
  0.4160000      1.7418998E-13
  0.4165000      2.0725835E-13
  0.4170000      2.4159686E-13
  0.4175000      2.7670021E-13
  0.4180000      3.1194391E-13
  0.4185000      3.4658027E-13
  0.4190000      3.7973959E-13
  0.4195000      4.1043869E-13
  0.4200000      4.3759099E-13
  0.4205000      4.6001956E-13
  0.4210000      4.7647970E-13
  0.4215000      4.8568555E-13
  0.4220000      4.8633878E-13
  0.4225000      4.7716334E-13
  0.4230000      4.5694779E-13
  0.4235000      4.2458295E-13
  0.4240000      3.7911083E-13
  0.4245000      3.1976979E-13
  0.4250000      2.4604003E-13
  0.4255000      1.5768692E-13
  0.4260000      5.4813423E-14
  0.4265000     -6.2110541E-14
  0.4270000     -1.9221198E-13
  0.4275000     -3.3418266E-13
  0.4280000     -4.8626787E-13
  0.4285000     -6.4625378E-13
  0.4290000     -8.1147431E-13
  0.4295000     -9.7881761E-13
  0.4300000     -1.1447622E-12
  0.4305000     -1.3054163E-12
  0.4310000     -1.4565712E-12
  0.4315000     -1.5937718E-12
  0.4320000     -1.7123925E-12
  0.4325000     -1.8077477E-12
  0.4330000     -1.8751810E-12
  0.4335000     -1.9101851E-12
  0.4340000     -1.9085319E-12
  0.4345000     -1.8663914E-12
  0.4350000     -1.7804699E-12
  0.4355000     -1.6481314E-12
  0.4360000     -1.4675272E-12
  0.4365000     -1.2377222E-12
  0.4370000     -9.5879305E-13
  0.4375000     -6.3192241E-13
  0.4380000     -2.5947872E-13
  0.4385000      1.5492273E-13
  0.4390000      6.0640685E-13
  0.4395000      1.0888160E-12
  0.4400000      1.5947451E-12
  0.4405000      2.1155916E-12
  0.4410000      2.6416517E-12
  0.4415000      3.1622263E-12
  0.4420000      3.6657903E-12
  0.4425000      4.1401639E-12
  0.4430000      4.5727337E-12
  0.4435000      4.9506840E-12
  0.4440000      5.2612728E-12
  0.4445000      5.4921120E-12
  0.4450000      5.6314554E-12
  0.4455000      5.6685273E-12
  0.4460000      5.5938132E-12
  0.4465000      5.3993711E-12
  0.4470000      5.0791446E-12
  0.4475000      4.6292206E-12
  0.4480000      4.0480874E-12
  0.4485000      3.3368720E-12
  0.4490000      2.4994895E-12
  0.4495000      1.5428093E-12
  0.4500000      4.7670608E-13
  0.4505000     -6.8589237E-13
  0.4510000     -1.9290632E-12
  0.4515000     -3.2339825E-12
  0.4520000     -4.5791209E-12
  0.4525000     -5.9404673E-12
  0.4530000     -7.2918616E-12
  0.4535000     -8.6053820E-12
  0.4540000     -9.8517592E-12
  0.4545000     -1.1000952E-11
  0.4550000     -1.2022641E-11
  0.4555000     -1.2886848E-11
  0.4560000     -1.3564625E-11
  0.4565000     -1.4028645E-11
  0.4570000     -1.4253944E-11
  0.4575000     -1.4218533E-11
  0.4580000     -1.3904101E-11
  0.4585000     -1.3296626E-11
  0.4590000     -1.2386952E-11
  0.4595000     -1.1171304E-11
  0.4600000     -9.6517429E-12
  0.4605000     -7.8365274E-12
  0.4610000     -5.7403431E-12
  0.4615000     -3.3844409E-12
  0.4620000     -7.9668455E-13
  0.4625000      1.9886167E-12
  0.4630000      4.9309185E-12
  0.4635000      7.9838922E-12
  0.4640000      1.1095902E-11
  0.4645000      1.4210758E-11
  0.4650000      1.7268468E-11
  0.4655000      2.0206233E-11
  0.4660000      2.2959497E-11
  0.4665000      2.5463060E-11
  0.4670000      2.7652413E-11
  0.4675000      2.9464969E-11
  0.4680000      3.0841447E-11
  0.4685000      3.1727274E-11
  0.4690000      3.2073851E-11
  0.4695000      3.1840010E-11
  0.4700000      3.0993135E-11
  0.4705000      2.9510477E-11
  0.4710000      2.7380044E-11
  0.4715000      2.4601573E-11
  0.4720000      2.1187260E-11
  0.4725000      1.7162209E-11
  0.4730000      1.2564756E-11
  0.4735000      7.4465720E-12
  0.4740000      1.8723016E-12
  0.4745000     -4.0807783E-12
  0.4750000     -1.0323530E-11
  0.4755000     -1.6756053E-11
  0.4760000     -2.3268902E-11
  0.4765000     -2.9744728E-11
  0.4770000     -3.6059954E-11
  0.4775000     -4.2086890E-11
  0.4780000     -4.7695927E-11
  0.4785000     -5.2757874E-11
  0.4790000     -5.7146496E-11
  0.4795000     -6.0741134E-11
  0.4800000     -6.3429186E-11
  0.4805000     -6.5108800E-11
  0.4810000     -6.5691425E-11
  0.4815000     -6.5104304E-11
  0.4820000     -6.3292538E-11
  0.4825000     -6.0221210E-11
  0.4830000     -5.5877206E-11