  0.0000000E+00  0.0000000E+00
  5.0000002E-04  0.0000000E+00
  1.0000000E-03  0.0000000E+00
  1.5000000E-03  0.0000000E+00
  2.0000001E-03  0.0000000E+00
  2.4999999E-03  0.0000000E+00
  3.0000000E-03  0.0000000E+00
  3.5000001E-03  0.0000000E+00
  4.0000002E-03  0.0000000E+00
  4.4999998E-03  0.0000000E+00
  4.9999999E-03  0.0000000E+00
  5.5000000E-03  0.0000000E+00
  6.0000001E-03  0.0000000E+00
  6.5000001E-03  0.0000000E+00
  7.0000002E-03  0.0000000E+00
  7.4999998E-03  0.0000000E+00
  8.0000004E-03  0.0000000E+00
  8.5000005E-03  0.0000000E+00
  8.9999996E-03  0.0000000E+00
  9.4999997E-03  0.0000000E+00
  9.9999998E-03  0.0000000E+00
  1.0500000E-02  0.0000000E+00
  1.1000000E-02  0.0000000E+00
  1.1500000E-02  0.0000000E+00
  1.2000000E-02  0.0000000E+00
  1.2500000E-02  0.0000000E+00
  1.3000000E-02  0.0000000E+00
  1.3500000E-02  0.0000000E+00
  1.4000000E-02  0.0000000E+00
  1.4500000E-02  0.0000000E+00
  1.5000000E-02  0.0000000E+00
  1.5500000E-02  0.0000000E+00
  1.6000001E-02  0.0000000E+00
  1.6500000E-02  0.0000000E+00
  1.7000001E-02  0.0000000E+00
  1.7500000E-02  0.0000000E+00
  1.7999999E-02  0.0000000E+00
  1.8500000E-02  0.0000000E+00
  1.8999999E-02  0.0000000E+00
  1.9500000E-02  0.0000000E+00
  2.0000000E-02  0.0000000E+00
  2.0500001E-02  0.0000000E+00
  2.1000000E-02  0.0000000E+00
  2.1500001E-02  0.0000000E+00
  2.2000000E-02  0.0000000E+00
  2.2500001E-02  0.0000000E+00
  2.3000000E-02  0.0000000E+00
  2.3499999E-02  0.0000000E+00
  2.4000000E-02  0.0000000E+00
  2.4499999E-02  0.0000000E+00
  2.5000000E-02  0.0000000E+00
  2.5500000E-02  0.0000000E+00
  2.6000001E-02  0.0000000E+00
  2.6500000E-02  0.0000000E+00
  2.7000001E-02  0.0000000E+00
  2.7500000E-02  0.0000000E+00
  2.8000001E-02  0.0000000E+00
  2.8500000E-02  0.0000000E+00
  2.8999999E-02  0.0000000E+00
  2.9500000E-02  0.0000000E+00
  2.9999999E-02  0.0000000E+00
  3.0500000E-02  0.0000000E+00
  3.0999999E-02  0.0000000E+00
  3.1500001E-02  0.0000000E+00
  3.2000002E-02  0.0000000E+00
  3.2499999E-02  0.0000000E+00
  3.3000000E-02  0.0000000E+00
  3.3500001E-02  0.0000000E+00
  3.4000002E-02  0.0000000E+00
  3.4499999E-02  0.0000000E+00
  3.5000000E-02  0.0000000E+00
  3.5500001E-02  0.0000000E+00
  3.5999998E-02  0.0000000E+00
  3.6499999E-02  0.0000000E+00
  3.7000000E-02  0.0000000E+00
  3.7500001E-02  0.0000000E+00
  3.7999999E-02  0.0000000E+00
  3.8500000E-02  0.0000000E+00
  3.9000001E-02  0.0000000E+00
  3.9500002E-02  0.0000000E+00
  3.9999999E-02  0.0000000E+00
  4.0500000E-02  0.0000000E+00
  4.1000001E-02  0.0000000E+00
  4.1499998E-02  0.0000000E+00
  4.1999999E-02  0.0000000E+00
  4.2500000E-02  0.0000000E+00
  4.3000001E-02  0.0000000E+00
  4.3499999E-02  0.0000000E+00
  4.4000000E-02  0.0000000E+00
  4.4500001E-02  0.0000000E+00
  4.5000002E-02  0.0000000E+00
  4.5499999E-02  0.0000000E+00
  4.6000000E-02  0.0000000E+00
  4.6500001E-02  0.0000000E+00
  4.6999998E-02  0.0000000E+00
  4.7499999E-02  0.0000000E+00
  4.8000000E-02  0.0000000E+00
  4.8500001E-02  0.0000000E+00
  4.8999999E-02  0.0000000E+00
  4.9500000E-02  0.0000000E+00
  5.0000001E-02  0.0000000E+00
  5.0500002E-02  0.0000000E+00
  5.0999999E-02  0.0000000E+00
  5.1500000E-02  0.0000000E+00
  5.2000001E-02  0.0000000E+00
  5.2499998E-02  0.0000000E+00
  5.2999999E-02  0.0000000E+00
  5.3500000E-02  0.0000000E+00
  5.4000001E-02  0.0000000E+00
  5.4499999E-02  0.0000000E+00
  5.5000000E-02  0.0000000E+00
  5.5500001E-02  0.0000000E+00
  5.6000002E-02  0.0000000E+00
  5.6499999E-02  0.0000000E+00
  5.7000000E-02  0.0000000E+00
  5.7500001E-02  0.0000000E+00
  5.7999998E-02  0.0000000E+00
  5.8499999E-02  0.0000000E+00
  5.9000000E-02  0.0000000E+00
  5.9500001E-02  0.0000000E+00
  5.9999999E-02  0.0000000E+00
  6.0500000E-02  0.0000000E+00
  6.1000001E-02  0.0000000E+00
  6.1500002E-02  0.0000000E+00
  6.1999999E-02  0.0000000E+00
  6.2500000E-02  0.0000000E+00
  6.3000001E-02  0.0000000E+00
  6.3500002E-02  0.0000000E+00
  6.4000003E-02  0.0000000E+00
  6.4499997E-02  0.0000000E+00
  6.4999998E-02  0.0000000E+00
  6.5499999E-02  0.0000000E+00
  6.6000000E-02  0.0000000E+00
  6.6500001E-02  0.0000000E+00
  6.7000002E-02  0.0000000E+00
  6.7500003E-02  0.0000000E+00
  6.8000004E-02  0.0000000E+00
  6.8499997E-02  0.0000000E+00
  6.8999998E-02  0.0000000E+00
  6.9499999E-02  0.0000000E+00
  7.0000000E-02  0.0000000E+00
  7.0500001E-02  0.0000000E+00
  7.1000002E-02  0.0000000E+00
  7.1500003E-02  0.0000000E+00
  7.1999997E-02  0.0000000E+00
  7.2499998E-02  0.0000000E+00
  7.2999999E-02  0.0000000E+00
  7.3500000E-02  0.0000000E+00
  7.4000001E-02  0.0000000E+00
  7.4500002E-02  0.0000000E+00
  7.5000003E-02  0.0000000E+00
  7.5499997E-02  0.0000000E+00
  7.5999998E-02  0.0000000E+00
  7.6499999E-02  0.0000000E+00
  7.7000000E-02  0.0000000E+00
  7.7500001E-02  0.0000000E+00
  7.8000002E-02  0.0000000E+00
  7.8500003E-02  0.0000000E+00
  7.9000004E-02  0.0000000E+00
  7.9499997E-02  0.0000000E+00
  7.9999998E-02 -1.6789666E-38
  8.0499999E-02 -2.8131877E-38
  8.1000000E-02 -3.9834476E-38
  8.1500001E-02 -4.9803969E-38
  8.2000002E-02 -5.6448461E-38
  8.2500003E-02 -5.7939773E-38
  8.2999997E-02 -5.3750541E-38
  8.3499998E-02 -4.2450058E-38
  8.3999999E-02 -1.9733312E-38
  8.4500000E-02  0.0000000E+00
  8.5000001E-02  0.0000000E+00
  8.5500002E-02  1.5407410E-38
  8.6000003E-02  3.6005490E-38
  8.6499996E-02  6.5821606E-38
  8.6999997E-02  1.0931612E-37
  8.7499999E-02  1.6674315E-37
  8.8000000E-02  2.4419061E-37
  8.8500001E-02  3.3920438E-37
  8.9000002E-02  4.4721775E-37
  8.9500003E-02  5.5990994E-37
  9.0000004E-02  6.6377217E-37
  9.0499997E-02  7.3995913E-37
  9.0999998E-02  7.6489274E-37
  9.1499999E-02  7.1168931E-37
  9.2000000E-02  5.5262176E-37
  9.2500001E-02  2.6206880E-37
  9.3000002E-02 -1.7954109E-37
  9.3500003E-02 -7.8045535E-37
  9.3999997E-02 -1.5328733E-36
  9.4499998E-02 -2.4084225E-36
  9.4999999E-02 -3.3549806E-36
  9.5500000E-02 -4.2948703E-36
  9.6000001E-02 -5.1258556E-36
  9.6500002E-02 -5.7250073E-36
  9.7000003E-02 -5.9562967E-36
  9.7499996E-02 -5.6817147E-36
  9.7999997E-02 -4.7745648E-36
  9.8499998E-02 -3.1372293E-36
  9.8999999E-02 -7.1791852E-37
  9.9500000E-02  2.4720627E-36
  0.1000000      6.3437880E-36
  0.1005000      1.0720783E-35
  0.1010000      1.5335775E-35
  0.1015000      1.9835691E-35
  0.1020000      2.3796111E-35
  0.1025000      2.6745318E-35
  0.1030000      2.8197188E-35
  0.1035000      2.7691166E-35
  0.1040000      2.4836247E-35
  0.1045000      1.9355483E-35
  0.1050000      1.1126563E-35
  0.1055000      2.1427629E-37
  0.1060000     -1.3109137E-35
  0.1065000     -2.8358477E-35
  0.1070000     -4.4846464E-35
  0.1075000     -6.1710503E-35
  0.1080000     -7.7953040E-35
  0.1085000     -9.2491454E-35
  0.1090000     -1.0421183E-34
  0.1095000     -1.1202066E-34
  0.1100000     -1.1488857E-34
  0.1105000     -1.1188178E-34
  0.1110000     -1.0217936E-34
  0.1115000     -8.5077598E-35
  0.1120000     -5.9986682E-35
  0.1125000     -2.6428611E-35
  0.1130000      1.5951886E-35
  0.1135000      6.7350127E-35
  0.1140000      1.2772560E-34
  0.1145000      1.9667710E-34
  0.1150000      2.7326653E-34
  0.1155000      3.5579546E-34
  0.1160000      4.4155108E-34
  0.1165000      5.2654809E-34
  0.1170000      6.0530557E-34
  0.1175000      6.7070613E-34
  0.1180000      7.1398889E-34
  0.1185000      7.2492838E-34
  0.1190000      6.9224279E-34
  0.1195000      6.0426016E-34
  0.1200000      4.4984755E-34
  0.1205000      2.1958280E-34
  0.1210000     -9.2888402E-35
  0.1215000     -4.8939425E-34
  0.1220000     -9.6579442E-34
  0.1225000     -1.5106927E-33
  0.1230000     -2.1044537E-33
  0.1235000     -2.7186694E-33
  0.1240000     -3.3162077E-33
  0.1245000     -3.8519385E-33
  0.1250000     -4.2741970E-33
  0.1255000     -4.5269768E-33
  0.1260000     -4.5528097E-33
  0.1265000     -4.2962195E-33
  0.1270000     -3.7076058E-33
  0.1275000     -2.7473775E-33
  0.1280000     -1.3901494E-33
  0.1285000      3.7117632E-34
  0.1290000      2.5216235E-33
  0.1295000      5.0207851E-33
  0.1300000      7.8000192E-33
  0.1305000      1.0760331E-32
  0.1310000      1.3771068E-32
  0.1315000      1.6669637E-32
  0.1320000      1.9262504E-32
  0.1325000      2.1327870E-32
  0.1330000      2.2620508E-32
  0.1335000      2.2879367E-32
  0.1340000      2.1838574E-32
  0.1345000      1.9242421E-32
  0.1350000      1.4864823E-32
  0.1355000      8.5332617E-33
  0.1360000      1.5692979E-34
  0.1365000     -1.0242042E-32
  0.1370000     -2.2496120E-32
  0.1375000     -3.6261359E-32
  0.1380000     -5.0991458E-32
  0.1385000     -6.5921229E-32
  0.1390000     -8.0064207E-32
  0.1395000     -9.2229152E-32
  0.1400000     -1.0105982E-31
  0.1405000     -1.0510111E-31
  0.1410000     -1.0289280E-31
  0.1415000     -9.3089602E-32
  0.1420000     -7.4603478E-32
  0.1425000     -4.6760287E-32
  0.1430000     -9.4596527E-33
  0.1435000      3.6676003E-32
  0.1440000      9.0180106E-32
  0.1445000      1.4866606E-31
  0.1450000      2.0881446E-31
  0.1455000      2.6643858E-31
  0.1460000      3.1663986E-31
  0.1465000      3.5405810E-31
  0.1470000      3.7321410E-31
  0.1475000      3.6893285E-31
  0.1480000      3.3682608E-31
  0.1485000      2.7380336E-31
  0.1490000      1.7857314E-31
  0.1495000      5.2088817E-32
  0.1500000     -1.0210746E-31
  0.1505000     -2.7768971E-31
  0.1510000     -4.6554283E-31
  0.1515000     -6.5397791E-31
  0.1520000     -8.2918544E-31
  0.1525000     -9.7592673E-31
  0.1530000     -1.0784437E-30
  0.1535000     -1.1215470E-30
  0.1540000     -1.0918244E-30
  0.1545000     -9.7889405E-31
  0.1550000     -7.7661338E-31
  0.1555000     -4.8415312E-31
  0.1560000     -1.0683978E-31
  0.1565000      3.4331808E-31
  0.1570000      8.4749240E-31
  0.1575000      1.3803389E-30
  0.1580000      1.9107674E-30
  0.1585000      2.4031797E-30
  0.1590000      2.8191420E-30
  0.1595000      3.1194364E-30
  0.1600000      3.2664050E-30
  0.1605000      3.2264811E-30
  0.1610000      2.9727848E-30
  0.1615000      2.4876475E-30
  0.1620000      1.7649243E-30
  0.1625000      8.1195100E-31
  0.1630000     -3.4899407E-31
  0.1635000     -1.6798589E-30
  0.1640000     -3.1267405E-30
  0.1645000     -4.6206697E-30
  0.1650000     -6.0793476E-30
  0.1655000     -7.4098958E-30
  0.1660000     -8.5126435E-30
  0.1665000     -9.2859307E-30
  0.1670000     -9.6318382E-30
  0.1675000     -9.4626912E-30
  0.1680000     -8.7080862E-30
  0.1685000     -7.3221058E-30
  0.1690000     -5.2902832E-30
  0.1695000     -2.6357976E-30
  0.1700000      5.7569431E-31
  0.1705000      4.2332124E-30
  0.1710000      8.1802189E-30
  0.1715000      1.2217532E-29
  0.1720000      1.6109808E-29
  0.1725000      1.9595802E-29
  0.1730000      2.2402316E-29
  0.1735000      2.4261478E-29
  0.1740000      2.4930525E-29
  0.1745000      2.4213014E-29
  0.1750000      2.1979921E-29
  0.1755000      1.8188913E-29
  0.1760000      1.2899820E-29
  0.1765000      6.2844418E-30
  0.1770000     -1.3711412E-30
  0.1775000     -9.6730825E-30
  0.1780000     -1.8135965E-29
  0.1785000     -2.6208732E-29
  0.1790000     -3.3309560E-29
  0.1795000     -3.8867911E-29
  0.1800000     -4.2371076E-29
  0.1805000     -4.3411749E-29
  0.1810000     -4.1732513E-29
  0.1815000     -3.7262850E-29
  0.1820000     -3.0144442E-29
  0.1825000     -2.0740952E-29
  0.1830000     -9.6295602E-30
  0.1835000      2.4271572E-30
  0.1840000      1.4528660E-29
  0.1845000      2.5700984E-29
  0.1850000      3.4974205E-29
  0.1855000      4.1466903E-29
  0.1860000      4.4470384E-29
  0.1865000      4.3524494E-29
  0.1870000      3.8476975E-29
  0.1875000      2.9518939E-29
  0.1880000      1.7190717E-29
  0.1885000      2.3549179E-30
  0.1890000     -1.3863515E-29
  0.1895000     -3.0166912E-29
  0.1900000     -4.5197257E-29
  0.1905000     -5.7661157E-29
  0.1910000     -6.6454857E-29
  0.1915000     -7.0775259E-29
  0.1920000     -7.0202783E-29
  0.1925000     -6.4743891E-29
  0.1930000     -5.4824130E-29
  0.1935000     -4.1227158E-29
  0.1940000     -2.4981698E-29
  0.1945000     -7.2046692E-30
  0.1950000      1.1084481E-29
  0.1955000      2.9157129E-29
  0.1960000      4.6751029E-29
  0.1965000      6.4200315E-29
  0.1970000      8.2493285E-29
  0.1975000      1.0323447E-28
  0.1980000      1.2849607E-28
  0.1985000      1.6055327E-28
  0.1990000      2.0151145E-28
  0.1995000      2.5284761E-28
  0.2000000      3.1490334E-28
  0.2005000      3.8637917E-28
  0.2010000      4.6389114E-28
  0.2015000      5.4165523E-28
  0.2020000      6.1136600E-28
  0.2025000      6.6232726E-28
  0.2030000      6.8187925E-28
  0.2035000      6.5614445E-28
  0.2040000      5.7108628E-28
  0.2045000      4.1384436E-28
  0.2050000      1.7427415E-28
  0.2055000     -1.5341172E-28
  0.2060000     -5.6903261E-28
  0.2065000     -1.0650127E-27
  0.2070000     -1.6252992E-27
  0.2075000     -2.2247855E-27
  0.2080000     -2.8293821E-27
  0.2085000     -3.3968397E-27
  0.2090000     -3.8783919E-27
  0.2095000     -4.2212105E-27
  0.2100000     -4.3716187E-27
  0.2105000     -4.2789144E-27
  0.2110000     -3.8996075E-27
  0.2115000     -3.2017969E-27
  0.2120000     -2.1693819E-27
  0.2125000     -8.0576388E-28
  0.2130000      8.6330176E-28
  0.2135000      2.7880211E-27
  0.2140000      4.8943111E-27
  0.2145000      7.0851719E-27
  0.2150000      9.2437719E-27
  0.2155000      1.1238220E-26
  0.2160000      1.2927868E-26
  0.2165000      1.4170892E-26
  0.2170000      1.4832734E-26
  0.2175000      1.4794966E-26
  0.2180000      1.3963998E-26
  0.2185000      1.2279094E-26
  0.2190000      9.7191169E-27
  0.2195000      6.3075038E-27
  0.2200000      2.1150588E-27
  0.2205000     -2.7397324E-27
  0.2210000     -8.0930034E-27
  0.2215000     -1.3740401E-26
  0.2220000     -1.9444389E-26
  0.2225000     -2.4943606E-26
  0.2230000     -2.9963815E-26
  0.2235000     -3.4229852E-26
  0.2240000     -3.7477943E-26
  0.2245000     -3.9467762E-26
  0.2250000     -3.9993572E-26
  0.2255000     -3.8893967E-26
  0.2260000     -3.6059778E-26
  0.2265000     -3.1439851E-26
  0.2270000     -2.5044583E-26
  0.2275000     -1.6947298E-26
  0.2280000     -7.2834950E-27
  0.2285000      3.7515987E-27
  0.2290000      1.5906940E-26
  0.2295000      2.8880657E-26
  0.2300000      4.2325783E-26
  0.2305000      5.5856412E-26
  0.2310000      6.9054184E-26
  0.2315000      8.1474996E-26
  0.2320000      9.2656046E-26
  0.2325000      1.0212339E-25
  0.2330000      1.0940025E-25
  0.2335000      1.1401659E-25
  0.2340000      1.1551994E-25
  0.2345000      1.1348816E-25
  0.2350000      1.0754387E-25
  0.2355000      9.7370753E-26
  0.2360000      8.2731418E-26
  0.2365000      6.3486127E-26
  0.2370000      3.9611874E-26
  0.2375000      1.1220813E-26
  0.2380000     -2.1423217E-26
  0.2385000     -5.7891192E-26
  0.2390000     -9.7579555E-26
  0.2395000     -1.3970618E-25
  0.2400000     -1.8331269E-25
  0.2405000     -2.2727334E-25
  0.2410000     -2.7031123E-25
  0.2415000     -3.1102133E-25
  0.2420000     -3.4789991E-25
  0.2425000     -3.7937968E-25
  0.2430000     -4.0386900E-25
  0.2435000     -4.1979425E-25
  0.2440000     -4.2564361E-25
  0.2445000     -4.2001089E-25
  0.2450000     -4.0163805E-25
  0.2455000     -3.6945603E-25
  0.2460000     -3.2262259E-25
  0.2465000     -2.6055738E-25
  0.2470000     -1.8297489E-25
  0.2475000     -8.9915636E-26
  0.2480000      1.8224154E-26
  0.2485000      1.4066207E-25
  0.2490000      2.7619899E-25
  0.2495000      4.2318695E-25
  0.2500000      5.7949712E-25
  0.2505000      7.4248713E-25
  0.2510000      9.0897218E-25
  0.2515000      1.0752008E-24
  0.2520000      1.2368416E-24
  0.2525000      1.3889839E-24
  0.2530000      1.5261600E-24
  0.2535000      1.6423927E-24
  0.2540000      1.7312754E-24
  0.2545000      1.7860886E-24
  0.2550000      1.7999573E-24
  0.2555000      1.7660480E-24
  0.2560000      1.6778095E-24
  0.2565000      1.5292497E-24
  0.2570000      1.3152438E-24
  0.2575000      1.0318665E-24
  0.2580000      6.7673231E-25
  0.2585000      2.4933573E-25
  0.2590000     -2.4863224E-25
  0.2595000     -8.1299970E-25
  0.2600000     -1.4368849E-24
  0.2605000     -2.1105362E-24
  0.2610000     -2.8212561E-24
  0.2615000     -3.5534204E-24
  0.2620000     -4.2886025E-24
  0.2625000     -5.0058068E-24
  0.2630000     -5.6818117E-24
  0.2635000     -6.2916201E-24
  0.2640000     -6.8090087E-24
  0.2645000     -7.2071650E-24
  0.2650000     -7.4594017E-24
  0.2655000     -7.5399239E-24
  0.2660000     -7.4246516E-24
  0.2665000     -7.0920520E-24
  0.2670000     -6.5239870E-24
  0.2675000     -5.7065523E-24
  0.2680000     -4.6308876E-24
  0.2685000     -3.2939469E-24
  0.2690000     -1.6992123E-24
  0.2695000      1.4266374E-25
  0.2700000      2.2133066E-24
  0.2705000      4.4861735E-24
  0.2710000      6.9262398E-24
  0.2715000      9.4898366E-24
  0.2720000      1.2124674E-23
  0.2725000      1.4770076E-23
  0.2730000      1.7357469E-23
  0.2735000      1.9811140E-23
  0.2740000      2.2049323E-23
  0.2745000      2.3985619E-23
  0.2750000      2.5530776E-23
  0.2755000      2.6594846E-23
  0.2760000      2.7089701E-23
  0.2765000      2.6931891E-23
  0.2770000      2.6045795E-23
  0.2775000      2.4366983E-23
  0.2780000      2.1845733E-23
  0.2785000      1.8450543E-23
  0.2790000      1.4171523E-23
  0.2795000      9.0235054E-24
  0.2800000      3.0487121E-24
  0.2805000     -3.6811886E-24
  0.2810000     -1.1063837E-23
  0.2815000     -1.8965852E-23
  0.2820000     -2.7223599E-23
  0.2825000     -3.5645141E-23
  0.2830000     -4.4013418E-23
  0.2835000     -5.2090688E-23
  0.2840000     -5.9624202E-23
  0.2845000     -6.6352971E-23
  0.2850000     -7.2015516E-23
  0.2855000     -7.6358328E-23
  0.2860000     -7.9144850E-23
  0.2865000     -8.0164575E-23
  0.2870000     -7.9241974E-23
  0.2875000     -7.6244864E-23
  0.2880000     -7.1091810E-23
  0.2885000     -6.3758263E-23
  0.2890000     -5.4281058E-23
  0.2895000     -4.2760960E-23
  0.2900000     -2.9363085E-23
  0.2905000     -1.4315009E-23
  0.2910000      2.0975021E-24
  0.2915000      1.9537025E-23
  0.2920000      3.7623257E-23
  0.2925000      5.5943649E-23
  0.2930000      7.4065646E-23
  0.2935000      9.1550110E-23
  0.2940000      1.0796528E-22
  0.2945000      1.2290091E-22
  0.2950000      1.3598170E-22
  0.2955000      1.4687982E-22
  0.2960000      1.5532549E-22
  0.2965000      1.6111537E-22
  0.2970000      1.6411828E-22
  0.2975000      1.6427767E-22
  0.2980000      1.6161104E-22
  0.2985000      1.5620568E-22
  0.2990000      1.4821131E-22
  0.2995000      1.3782961E-22
  0.3000000      1.2530106E-22
  0.3005000      1.1088974E-22
  0.3010000      9.4866727E-23
  0.3015000      7.7493006E-23
  0.3020000      5.9002694E-23
  0.3025000      3.9587609E-23
  0.3030000      1.9384141E-23
  0.3035000     -1.5367228E-24
  0.3040000     -2.3175332E-23
  0.3045000     -4.5604516E-23
  0.3050000     -6.8965508E-23
  0.3055000     -9.3458308E-23
  0.3060000     -1.1932629E-22
  0.3065000     -1.4683543E-22
  0.3070000     -1.7624835E-22
  0.3075000     -2.0779419E-22
  0.3080000     -2.4163504E-22
  0.3085000     -2.7783025E-22
  0.3090000     -3.1630031E-22
  0.3095000     -3.5679131E-22
  0.3100000     -3.9884267E-22
  0.3105000     -4.4175877E-22
  0.3110000     -4.8458754E-22
  0.3115000     -5.2610671E-22
  0.3120000     -5.6482032E-22
  0.3125000     -5.9896626E-22
  0.3130000     -6.2653645E-22
  0.3135000     -6.4531013E-22
  0.3140000     -6.5290173E-22
  0.3145000     -6.4682217E-22
  0.3150000     -6.2455408E-22
  0.3155000     -5.8363989E-22
  0.3160000     -5.2178103E-22
  0.3165000     -4.3694665E-22
  0.3170000     -3.2748880E-22
  0.3175000     -1.9226182E-22
  0.3180000     -3.0741212E-23
  0.3185000      1.5686105E-22
  0.3190000      3.6948988E-22
  0.3195000      6.0515365E-22
  0.3200000      8.6084844E-22
  0.3205000      1.1325062E-21
  0.3210000      1.4149693E-21
  0.3215000      1.7019992E-21
  0.3220000      1.9863195E-21
  0.3225000      2.2596999E-21
  0.3230000      2.5130815E-21
  0.3235000      2.7367454E-21
  0.3240000      2.9205243E-21
  0.3245000      3.0540566E-21
  0.3250000      3.1270769E-21
  0.3255000      3.1297435E-21
  0.3260000      3.0529895E-21
  0.3265000      2.8888962E-21
  0.3270000      2.6310737E-21
  0.3275000      2.2750389E-21
  0.3280000      1.8185800E-21
  0.3285000      1.2620921E-21
  0.3290000      6.0886738E-22
  0.3295000     -1.3466800E-22
  0.3300000     -9.5879149E-22
  0.3305000     -1.8504055E-21
  0.3310000     -2.7930559E-21
  0.3315000     -3.7670572E-21
  0.3320000     -4.7497313E-21
  0.3325000     -5.7157643E-21
  0.3330000     -6.6376846E-21
  0.3335000     -7.4864539E-21
  0.3340000     -8.2321677E-21
  0.3345000     -8.8448549E-21
  0.3350000     -9.2953509E-21
  0.3355000     -9.5562399E-21
  0.3360000     -9.6028205E-21
  0.3365000     -9.4140876E-21
  0.3370000     -8.9736834E-21
  0.3375000     -8.2707932E-21
  0.3380000     -7.3009489E-21
  0.3385000     -6.0667066E-21
  0.3390000     -4.5781664E-21
  0.3395000     -2.8532985E-21
  0.3400000     -9.1806183E-22
  0.3405000      1.1937216E-21
  0.3410000      3.4407385E-21
  0.3415000      5.7748209E-21
  0.3420000      8.1418346E-21
  0.3425000      1.0482826E-20
  0.3430000      1.2735393E-20
  0.3435000      1.4835266E-20
  0.3440000      1.6718055E-20
  0.3445000      1.8321115E-20
  0.3450000      1.9585491E-20
  0.3455000      2.0457881E-20
  0.3460000      2.0892529E-20
  0.3465000      2.0853039E-20
  0.3470000      2.0313982E-20
  0.3475000      1.9262277E-20
  0.3480000      1.7698271E-20
  0.3485000      1.5636465E-20
  0.3490000      1.3105842E-20
  0.3495000      1.0149765E-20
  0.3500000      6.8254186E-21
  0.3505000      3.2028005E-21
  0.3510000     -6.3675878E-22
  0.3515000     -4.6024919E-21
  0.3520000     -8.5964939E-21
  0.3525000     -1.2516361E-20
  0.3530000     -1.6258101E-20
  0.3535000     -1.9719243E-20
  0.3540000     -2.2802041E-20
  0.3545000     -2.5416701E-20
  0.3550000     -2.7484475E-20
  0.3555000     -2.8940584E-20
  0.3560000     -2.9736778E-20
  0.3565000     -2.9843539E-20
  0.3570000     -2.9251704E-20
  0.3575000     -2.7973545E-20
  0.3580000     -2.6043156E-20
  0.3585000     -2.3516128E-20
  0.3590000     -2.0468499E-20
  0.3595000     -1.6994941E-20
  0.3600000     -1.3206212E-20
  0.3605000     -9.2259404E-21
  0.3610000     -5.1867662E-21
  0.3615000     -1.2259968E-21
  0.3620000      2.5191818E-21
  0.3625000      5.9167252E-21
  0.3630000      8.8448896E-21
  0.3635000      1.1197301E-20
  0.3640000      1.2887816E-20
  0.3645000      1.3854930E-20
  0.3650000      1.4065600E-20
  0.3655000      1.3518299E-20
  0.3660000      1.2245100E-20
  0.3665000      1.0312724E-20
  0.3670000      7.8223740E-21
  0.3675000      4.9083298E-21
  0.3680000      1.7352042E-21
  0.3685000     -1.5060965E-21
  0.3690000     -4.6037052E-21
  0.3695000     -7.3312969E-21
  0.3700000     -9.4556599E-21
  0.3705000     -1.0745130E-20
  0.3710000     -1.0978734E-20
  0.3715000     -9.9557084E-21
  0.3720000     -7.5050792E-21
  0.3725000     -3.4951616E-21
  0.3730000      2.1575928E-21
  0.3735000      9.4805375E-21
  0.3740000      1.8438053E-20
  0.3745000      2.8926280E-20
  0.3750000      4.0769710E-20
  0.3755000      5.3719826E-20
  0.3760000      6.7456159E-20
  0.3765000      8.1589703E-20
  0.3770000      9.5668976E-20
  0.3775000      1.0918859E-19
  0.3780000      1.2160038E-19
  0.3785000      1.3232680E-19
  0.3790000      1.4077640E-19
  0.3795000      1.4636114E-19
  0.3800000      1.4851515E-19
  0.3805000      1.4671401E-19
  0.3810000      1.4049474E-19
  0.3815000      1.2947544E-19
  0.3820000      1.1337397E-19
  0.3825000      9.2025187E-20
  0.3830000      6.5396195E-20
  0.3835000      3.3598671E-20
  0.3840000     -3.1019206E-21
  0.3845000     -4.4280826E-20
  0.3850000     -8.9352735E-20
  0.3855000     -1.3757490E-19
  0.3860000     -1.8805470E-19
  0.3865000     -2.3976213E-19
  0.3870000     -2.9154645E-19
  0.3875000     -3.4215752E-19
  0.3880000     -3.9027074E-19
  0.3885000     -4.3451560E-19
  0.3890000     -4.7350719E-19
  0.3895000     -5.0587911E-19
  0.3900000     -5.3031873E-19
  0.3905000     -5.4560171E-19
  0.3910000     -5.5062668E-19
  0.3915000     -5.4444811E-19
  0.3920000     -5.2630674E-19
  0.3925000     -4.9565701E-19
  0.3930000     -4.5218971E-19
  0.3935000     -3.9585067E-19
  0.3940000     -3.2685323E-19
  0.3945000     -2.4568541E-19
  0.3950000     -1.5311064E-19
  0.3955000     -5.0162274E-20
  0.3960000      6.1867895E-20
  0.3965000      1.8144717E-19
  0.3970000      3.0682484E-19
  0.3975000      4.3606020E-19
  0.3980000      5.6705439E-19
  0.3985000      6.9758586E-19
  0.3990000      8.2534846E-19
  0.3995000      9.4798982E-19
  0.4000000      1.0631509E-18
  0.4005000      1.1685054E-18
  0.4010000      1.2617961E-18
  0.4015000      1.3408697E-18
  0.4020000      1.4037091E-18
  0.4025000      1.4484594E-18
  0.4030000      1.4734530E-18
  0.4035000      1.4772274E-18
  0.4040000      1.4585409E-18
  0.4045000      1.4163819E-18
  0.4050000      1.3499768E-18
  0.4055000      1.2587928E-18
  0.4060000      1.1425400E-18
  0.4065000      1.0011709E-18
  0.4070000      8.3488053E-19
  0.4075000      6.4410698E-19
  0.4080000      4.2953354E-19
  0.4085000      1.9209354E-19
  0.4090000     -6.7020254E-20
  0.4095000     -3.4634251E-19
  0.4100000     -6.4411768E-19
  0.4105000     -9.5827706E-19
  0.4110000     -1.2864115E-18
  0.4115000     -1.6257399E-18
  0.4120000     -1.9730745E-18
  0.4125000     -2.3247851E-18
  0.4130000     -2.6767645E-18
  0.4135000     -3.0243944E-18
  0.4140000     -3.3625192E-18
  0.4145000     -3.6854263E-18
  0.4150000     -3.9868393E-18
  0.4155000     -4.2599227E-18
  0.4160000     -4.4973107E-18
  0.4165000     -4.6911514E-18
  0.4170000     -4.8331770E-18
  0.4175000     -4.9148036E-18
  0.4180000     -4.9272556E-18
  0.4185000     -4.8617214E-18
  0.4190000     -4.7095421E-18
  0.4195000     -4.4624276E-18
  0.4200000     -4.1127035E-18
  0.4205000     -3.6535823E-18
  0.4210000     -3.0794555E-18
  0.4215000     -2.3862091E-18
  0.4220000     -1.5715412E-18
  0.4225000     -6.3528841E-19
  0.4230000      4.2025524E-19
  0.4235000      1.5900359E-18
  0.4240000      2.8659620E-18
  0.4245000      4.2366657E-18
  0.4250000      5.6873117E-18
  0.4255000      7.1994682E-18
  0.4260000      8.7510464E-18
  0.4265000      1.0316328E-17
  0.4270000      1.1866083E-17
  0.4275000      1.3367785E-17
  0.4280000      1.4785939E-17
  0.4285000      1.6082527E-17
  0.4290000      1.7217553E-17
  0.4295000      1.8149709E-17
  0.4300000      1.8837159E-17
  0.4305000      1.9238419E-17
  0.4310000      1.9313327E-17
  0.4315000      1.9024090E-17
  0.4320000      1.8336412E-17
  0.4325000      1.7220635E-17
  0.4330000      1.5652921E-17
  0.4335000      1.3616412E-17
  0.4340000      1.1102356E-17
  0.4345000      8.1111677E-18
  0.4350000      4.6533815E-18
  0.4355000      7.5047771E-19
  0.4360000     -3.5644598E-18
  0.4365000     -8.2462793E-18
  0.4370000     -1.3237529E-17
  0.4375000     -1.8468476E-17
  0.4380000     -2.3857404E-17
  0.4385000     -2.9311205E-17
  0.4390000     -3.4726270E-17
  0.4395000     -3.9989736E-17
  0.4400000     -4.4980996E-17
  0.4405000     -4.9573573E-17
  0.4410000     -5.3637246E-17
  0.4415000     -5.7040509E-17
  0.4420000     -5.9653215E-17
  0.4425000     -6.1349478E-17
  0.4430000     -6.2010693E-17
  0.4435000     -6.1528731E-17
  0.4440000     -5.9809096E-17
  0.4445000     -5.6774144E-17
  0.4450000     -5.2366158E-17
  0.4455000     -4.6550314E-17
  0.4460000     -3.9317334E-17
  0.4465000     -3.0685906E-17
  0.4470000     -2.0704630E-17
  0.4475000     -9.4535718E-18
  0.4480000      2.9547950E-18
  0.4485000      1.6375182E-17
  0.4490000      3.0629790E-17
  0.4495000      4.5509264E-17
  0.4500000      6.0774442E-17
  0.4505000      7.6158797E-17
  0.4510000      9.1371674E-17
  0.4515000      1.0610229E-16
  0.4520000      1.2002441E-16
  0.4525000      1.3280176E-16
  0.4530000      1.4409398E-16
  0.4535000      1.5356324E-16
  0.4540000      1.6088115E-16
  0.4545000      1.6573612E-16
  0.4550000      1.6784086E-16
  0.4555000      1.6693992E-16
  0.4560000      1.6281730E-16
  0.4565000      1.5530349E-16
  0.4570000      1.4428253E-16
  0.4575000      1.2969810E-16
  0.4580000      1.1155902E-16
  0.4585000      8.9943907E-17
  0.4590000      6.5004637E-17
  0.4595000      3.6968647E-17
  0.4600000      6.1398143E-18
  0.4605000     -2.7101956E-17
  0.4610000     -6.2302853E-17
  0.4615000     -9.8938828E-17
  0.4620000     -1.3642093E-16
  0.4625000     -1.7410218E-16
  0.4630000     -2.1128629E-16
  0.4635000     -2.4723767E-16
  0.4640000     -2.8119307E-16
  0.4645000     -3.1237450E-16
  0.4650000     -3.4000323E-16
  0.4655000     -3.6331485E-16
  0.4660000     -3.8157492E-16
  0.4665000     -3.9409510E-16
  0.4670000     -4.0024954E-16
  0.4675000     -3.9949086E-16
  0.4680000     -3.9136594E-16
  0.4685000     -3.7553065E-16
  0.4690000     -3.5176355E-16
  0.4695000     -3.1997800E-16
  0.4700000     -2.8023241E-16
  0.4705000     -2.3273855E-16
  0.4710000     -1.7786709E-16
  0.4715000     -1.1615060E-16
  0.4720000     -4.8283714E-17
  0.4725000      2.4879980E-17
  0.4730000      1.0233424E-16
  0.4735000      1.8292966E-16
  0.4740000      2.6538672E-16
  0.4745000      3.4831189E-16
  0.4750000      4.3021685E-16
  0.4755000      5.0954088E-16
  0.4760000      5.8467593E-16
  0.4765000      6.5399377E-16
  0.4770000      7.1587540E-16
  0.4775000      7.6874201E-16
  0.4780000      8.1108693E-16
  0.4785000      8.4150786E-16
  0.4790000      8.5873931E-16
  0.4795000      8.6168413E-16
  0.4800000      8.4944371E-16
  0.4805000      8.2134593E-16
  0.4810000      7.7697099E-16
  0.4815000      7.1617313E-16
  0.4820000      6.3909922E-16
  0.4825000      5.4620221E-16
  0.4830000      4.3824987E-16