  0.0000000E+00  0.0000000E+00
  5.0000002E-04  0.0000000E+00
  1.0000000E-03  0.0000000E+00
  1.5000000E-03  0.0000000E+00
  2.0000001E-03  0.0000000E+00
  2.4999999E-03  0.0000000E+00
  3.0000000E-03  0.0000000E+00
  3.5000001E-03  0.0000000E+00
  4.0000002E-03  0.0000000E+00
  4.4999998E-03  0.0000000E+00
  4.9999999E-03  0.0000000E+00
  5.5000000E-03  0.0000000E+00
  6.0000001E-03  0.0000000E+00
  6.5000001E-03  0.0000000E+00
  7.0000002E-03  0.0000000E+00
  7.4999998E-03  0.0000000E+00
  8.0000004E-03  0.0000000E+00
  8.5000005E-03  0.0000000E+00
  8.9999996E-03  0.0000000E+00
  9.4999997E-03  0.0000000E+00
  9.9999998E-03  0.0000000E+00
  1.0500000E-02  0.0000000E+00
  1.1000000E-02  0.0000000E+00
  1.1500000E-02  0.0000000E+00
  1.2000000E-02  0.0000000E+00
  1.2500000E-02  0.0000000E+00
  1.3000000E-02  0.0000000E+00
  1.3500000E-02  0.0000000E+00
  1.4000000E-02  0.0000000E+00
  1.4500000E-02  0.0000000E+00
  1.5000000E-02  0.0000000E+00
  1.5500000E-02  0.0000000E+00
  1.6000001E-02  0.0000000E+00
  1.6500000E-02  0.0000000E+00
  1.7000001E-02  0.0000000E+00
  1.7500000E-02  0.0000000E+00
  1.7999999E-02  0.0000000E+00
  1.8500000E-02  0.0000000E+00
  1.8999999E-02  0.0000000E+00
  1.9500000E-02  0.0000000E+00
  2.0000000E-02  0.0000000E+00
  2.0500001E-02  0.0000000E+00
  2.1000000E-02  0.0000000E+00
  2.1500001E-02  0.0000000E+00
  2.2000000E-02  0.0000000E+00
  2.2500001E-02  0.0000000E+00
  2.3000000E-02  0.0000000E+00
  2.3499999E-02  0.0000000E+00
  2.4000000E-02  0.0000000E+00
  2.4499999E-02  0.0000000E+00
  2.5000000E-02  0.0000000E+00
  2.5500000E-02  0.0000000E+00
  2.6000001E-02  0.0000000E+00
  2.6500000E-02  0.0000000E+00
  2.7000001E-02  0.0000000E+00
  2.7500000E-02  0.0000000E+00
  2.8000001E-02  0.0000000E+00
  2.8500000E-02  0.0000000E+00
  2.8999999E-02  0.0000000E+00
  2.9500000E-02  0.0000000E+00
  2.9999999E-02  0.0000000E+00
  3.0500000E-02  0.0000000E+00
  3.0999999E-02  0.0000000E+00
  3.1500001E-02  0.0000000E+00
  3.2000002E-02  0.0000000E+00
  3.2499999E-02  0.0000000E+00
  3.3000000E-02  0.0000000E+00
  3.3500001E-02  0.0000000E+00
  3.4000002E-02  0.0000000E+00
  3.4499999E-02  0.0000000E+00
  3.5000000E-02  0.0000000E+00
  3.5500001E-02  0.0000000E+00
  3.5999998E-02  0.0000000E+00
  3.6499999E-02  0.0000000E+00
  3.7000000E-02  0.0000000E+00
  3.7500001E-02  0.0000000E+00
  3.7999999E-02  0.0000000E+00
  3.8500000E-02  0.0000000E+00
  3.9000001E-02  0.0000000E+00
  3.9500002E-02  0.0000000E+00
  3.9999999E-02  0.0000000E+00
  4.0500000E-02  0.0000000E+00
  4.1000001E-02  0.0000000E+00
  4.1499998E-02  0.0000000E+00
  4.1999999E-02  0.0000000E+00
  4.2500000E-02  0.0000000E+00
  4.3000001E-02  0.0000000E+00
  4.3499999E-02  0.0000000E+00
  4.4000000E-02  0.0000000E+00
  4.4500001E-02  0.0000000E+00
  4.5000002E-02  0.0000000E+00
  4.5499999E-02  0.0000000E+00
  4.6000000E-02  0.0000000E+00
  4.6500001E-02  0.0000000E+00
  4.6999998E-02  0.0000000E+00
  4.7499999E-02  0.0000000E+00
  4.8000000E-02  0.0000000E+00
  4.8500001E-02  0.0000000E+00
  4.8999999E-02  0.0000000E+00
  4.9500000E-02  0.0000000E+00
  5.0000001E-02  0.0000000E+00
  5.0500002E-02  0.0000000E+00
  5.0999999E-02  0.0000000E+00
  5.1500000E-02  0.0000000E+00
  5.2000001E-02  0.0000000E+00
  5.2499998E-02  0.0000000E+00
  5.2999999E-02  0.0000000E+00
  5.3500000E-02  0.0000000E+00
  5.4000001E-02  0.0000000E+00
  5.4499999E-02  0.0000000E+00
  5.5000000E-02  0.0000000E+00
  5.5500001E-02  0.0000000E+00
  5.6000002E-02  0.0000000E+00
  5.6499999E-02  0.0000000E+00
  5.7000000E-02  0.0000000E+00
  5.7500001E-02  0.0000000E+00
  5.7999998E-02  0.0000000E+00
  5.8499999E-02  0.0000000E+00
  5.9000000E-02  0.0000000E+00
  5.9500001E-02  0.0000000E+00
  5.9999999E-02  0.0000000E+00
  6.0500000E-02  0.0000000E+00
  6.1000001E-02  0.0000000E+00
  6.1500002E-02  0.0000000E+00
  6.1999999E-02  0.0000000E+00
  6.2500000E-02  0.0000000E+00
  6.3000001E-02  0.0000000E+00
  6.3500002E-02 -6.6184812E-38
  6.4000003E-02 -1.5382270E-37
  6.4499997E-02 -2.5256055E-37
  6.4999998E-02 -3.2719790E-37
  6.5499999E-02 -3.5820904E-37
  6.6000000E-02 -3.0742654E-37
  6.6500001E-02 -2.1000796E-37
  6.7000002E-02 -1.2490482E-37
  6.7500003E-02 -2.1870990E-38
  6.8000004E-02  6.9209402E-38
  6.8499997E-02  1.2733264E-37
  6.8999998E-02  6.7461350E-38
  6.9499999E-02  3.8284116E-38
  7.0000000E-02  9.7494724E-38
  7.0500001E-02  1.8926672E-37
  7.1000002E-02  4.0421120E-37
  7.1500003E-02  5.0052318E-37
  7.1999997E-02  8.3713427E-37
  7.2499998E-02  1.5170718E-36
  7.2999999E-02  1.8253446E-36
  7.3500000E-02  2.4903869E-36
  7.4000001E-02  3.8371758E-36
  7.4500002E-02  5.6790059E-36
  7.5000003E-02  7.0451135E-36
  7.5499997E-02  6.7578161E-36
  7.5999998E-02  5.5059043E-36
  7.6499999E-02  3.7386758E-36
  7.7000000E-02  1.7955138E-36
  7.7500001E-02  1.9050064E-38
  7.8000002E-02 -2.0271461E-36
  7.8500003E-02 -5.0094731E-36
  7.9000004E-02 -9.1703662E-36
  7.9499997E-02 -1.4418926E-35
  7.9999998E-02 -1.9334725E-35
  8.0499999E-02 -1.8585836E-35
  8.1000000E-02 -6.9895415E-36
  8.1500001E-02  1.6543509E-35
  8.2000002E-02  4.9890930E-35
  8.2500003E-02  8.7658996E-35
  8.2999997E-02  1.2152616E-34
  8.3499998E-02  1.4294367E-34
  8.3999999E-02  1.4407541E-34
  8.4500000E-02  1.1790361E-34
  8.5000001E-02  6.0167816E-35
  8.5500002E-02 -3.0143458E-35
  8.6000003E-02 -1.4940192E-34
  8.6499996E-02 -2.8894032E-34
  8.6999997E-02 -4.3578657E-34
  8.7499999E-02 -5.7326210E-34
  8.8000000E-02 -6.8329893E-34
  8.8500001E-02 -7.4752845E-34
  8.9000002E-02 -7.4754636E-34
  8.9500003E-02 -6.6660324E-34
  9.0000004E-02 -4.9091620E-34
  9.0499997E-02 -2.1103519E-34
  9.0999998E-02  1.7714826E-34
  9.1499999E-02  6.7066898E-34
  9.2000000E-02  1.2578651E-33
  9.2500001E-02  1.9168965E-33
  9.3000002E-02  2.6141850E-33
  9.3500003E-02  3.3033599E-33
  9.3999997E-02  3.9247420E-33
  9.4499998E-02  4.4056772E-33
  9.4999999E-02  4.6619379E-33
  9.5500000E-02  4.6002064E-33
  9.6000001E-02  4.1219485E-33
  9.6500002E-02  3.1290021E-33
  9.7000003E-02  1.5308974E-33
  9.7499996E-02 -7.4563719E-34
  9.7999997E-02 -3.7446320E-33
  9.8499998E-02 -7.4666975E-33
  9.8999999E-02 -1.1852059E-32
  9.9500000E-02 -1.6761766E-32
  0.1000000     -2.1958762E-32
  0.1005000     -2.7090108E-32
  0.1010000     -3.1673354E-32
  0.1015000     -3.5090740E-32
  0.1020000     -3.6595593E-32
  0.1025000     -3.5335466E-32
  0.1030000     -3.0396609E-32
  0.1035000     -2.0873569E-32
  0.1040000     -5.9660328E-33
  0.1045000      1.4897525E-32
  0.1050000      4.1913274E-32
  0.1055000      7.4740664E-32
  0.1060000      1.1233882E-31
  0.1065000      1.5281889E-31
  0.1070000      1.9333391E-31
  0.1075000      2.3003141E-31
  0.1080000      2.5809542E-31
  0.1085000      2.7190285E-31
  0.1090000      2.6531460E-31
  0.1095000      2.3211363E-31
  0.1100000      1.6658964E-31
  0.1105000      6.4255389E-32
  0.1110000     -7.7338924E-32
  0.1115000     -2.5774637E-31
  0.1120000     -4.7279027E-31
  0.1125000     -7.1384678E-31
  0.1130000     -9.6734195E-31
  0.1135000     -1.2145683E-30
  0.1140000     -1.4319215E-30
  0.1145000     -1.5916419E-30
  0.1150000     -1.6631218E-30
  0.1155000     -1.6147988E-30
  0.1160000     -1.4166119E-30
  0.1165000     -1.0429397E-30
  0.1170000     -4.7588577E-31
  0.1175000      2.9128571E-31
  0.1180000      1.2508111E-30
  0.1185000      2.3774725E-30
  0.1190000      3.6263455E-30
  0.1195000      4.9315671E-30
  0.1200000      6.2064379E-30
  0.1205000      7.3451116E-30
  0.1210000      8.2260816E-30
  0.1215000      8.7175699E-30
  0.1220000      8.6848065E-30
  0.1225000      7.9990942E-30
  0.1230000      6.5483627E-30
  0.1235000      4.2488226E-30
  0.1240000      1.0571607E-30
  0.1245000     -3.0174199E-30
  0.1250000     -7.9021034E-30
  0.1255000     -1.3451226E-29
  0.1260000     -1.9439869E-29
  0.1265000     -2.5561261E-29
  0.1270000     -3.1428986E-29
  0.1275000     -3.6584857E-29
  0.1280000     -4.0513212E-29
  0.1285000     -4.2662165E-29
  0.1290000     -4.2471904E-29
  0.1295000     -3.9409847E-29
  0.1300000     -3.3011911E-29
  0.1305000     -2.2928510E-29
  0.1310000     -8.9732033E-30
  0.1315000      8.8285592E-30
  0.1320000      3.0194074E-29
  0.1325000      5.4545267E-29
  0.1330000      8.0982104E-29
  0.1335000      1.0827209E-28
  0.1340000      1.3485996E-28
  0.1345000      1.5890156E-28
  0.1350000      1.7832438E-28
  0.1355000      1.9091629E-28
  0.1360000      1.9444178E-28
  0.1365000      1.8678310E-28
  0.1370000      1.6610113E-28
  0.1375000      1.3100821E-28
  0.1380000      8.0743241E-29
  0.1385000      1.5337239E-29
  0.1390000     -6.4244100E-29
  0.1395000     -1.5599405E-28
  0.1400000     -2.5680802E-28
  0.1405000     -3.6248756E-28
  0.1410000     -4.6781354E-28
  0.1415000     -5.6669444E-28
  0.1420000     -6.5238859E-28
  0.1425000     -7.1779693E-28
  0.1430000     -7.5581556E-28
  0.1435000     -7.5973348E-28
  0.1440000     -7.2365696E-28
  0.1445000     -6.4293738E-28
  0.1450000     -5.1457954E-28
  0.1455000     -3.3760724E-28
  0.1460000     -1.1336285E-28
  0.1465000      1.5427738E-28
  0.1470000      4.5878742E-28
  0.1475000      7.9098419E-28
  0.1480000      1.1391348E-27
  0.1485000      1.4891769E-27
  0.1490000      1.8250492E-27
  0.1495000      2.1291240E-27
  0.1500000      2.3827343E-27
  0.1505000      2.5667872E-27
  0.1510000      2.6624520E-27
  0.1515000      2.6519219E-27
  0.1520000      2.5192369E-27
  0.1525000      2.2511621E-27
  0.1530000      1.8381125E-27
  0.1535000      1.2751068E-27
  0.1540000      5.6272548E-28
  0.1545000     -2.9196000E-28
  0.1550000     -1.2745383E-27
  0.1555000     -2.3625510E-27
  0.1560000     -3.5250003E-27
  0.1565000     -4.7221595E-27
  0.1570000     -5.9057748E-27
  0.1575000     -7.0197520E-27
  0.1580000     -8.0013923E-27
  0.1585000     -8.7832513E-27
  0.1590000     -9.2956288E-27
  0.1595000     -9.4696828E-27
  0.1600000     -9.2410972E-27
  0.1605000     -8.5541889E-27
  0.1610000     -7.3662876E-27
  0.1615000     -5.6521495E-27
  0.1620000     -3.4081761E-27
  0.1625000     -6.5612085E-28
  0.1630000      2.5539992E-27
  0.1635000      6.1420725E-27
  0.1640000      9.9973960E-27
  0.1645000      1.3979729E-26
  0.1650000      1.7922025E-26
  0.1655000      2.1634903E-26
  0.1660000      2.4912834E-26
  0.1665000      2.7541883E-26
  0.1670000      2.9308842E-26
  0.1675000      3.0011434E-26
  0.1680000      2.9469236E-26
  0.1685000      2.7534906E-26
  0.1690000      2.4105287E-26
  0.1695000      1.9131881E-26
  0.1700000      1.2630260E-26
  0.1705000      4.6878934E-27
  0.1710000     -4.5300719E-27
  0.1715000     -1.4777566E-26
  0.1720000     -2.5727363E-26
  0.1725000     -3.6974290E-26
  0.1730000     -4.8042369E-26
  0.1735000     -5.8396224E-26
  0.1740000     -6.7457074E-26
  0.1745000     -7.4623499E-26
  0.1750000     -7.9296958E-26
  0.1755000     -8.0911719E-26
  0.1760000     -7.8968613E-26
  0.1765000     -7.3071649E-26
  0.1770000     -6.2965873E-26
  0.1775000     -4.8574668E-26
  0.1780000     -3.0033978E-26
  0.1785000     -7.7206610E-27
  0.1790000      1.7728009E-26
  0.1795000      4.5406954E-26
  0.1800000      7.4151027E-26
  0.1805000      1.0256039E-25
  0.1810000      1.2904538E-25
  0.1815000      1.5189156E-25
  0.1820000      1.6934452E-25
  0.1825000      1.7971202E-25
  0.1830000      1.8147957E-25
  0.1835000      1.7343399E-25
  0.1840000      1.5478712E-25
  0.1845000      1.2529144E-25
  0.1850000      8.5337691E-26
  0.1855000      3.6024800E-26
  0.1860000     -2.0807470E-26
  0.1865000     -8.2591241E-26
  0.1870000     -1.4609487E-25
  0.1875000     -2.0754191E-25
  0.1880000     -2.6278443E-25
  0.1885000     -3.0752633E-25
  0.1890000     -3.3758790E-25
  0.1895000     -3.4919865E-25
  0.1900000     -3.3930185E-25
  0.1905000     -3.0585131E-25
  0.1910000     -2.4807844E-25
  0.1915000     -1.6670766E-25
  0.1920000     -6.4099497E-26
  0.1925000      5.5697906E-26
  0.1930000      1.8700220E-25
  0.1935000      3.2266398E-25
  0.1940000      4.5434912E-25
  0.1945000      5.7293020E-25
  0.1950000      6.6897352E-25
  0.1955000      7.3329951E-25
  0.1960000      7.5758824E-25
  0.1965000      7.3499743E-25
  0.1970000      6.6075433E-25
  0.1975000      5.3268395E-25
  0.1980000      3.5163487E-25
  0.1985000      1.2176978E-25
  0.1990000     -1.4930984E-25
  0.1995000     -4.5062387E-25
  0.2000000     -7.6807161E-25
  0.2005000     -1.0848895E-24
  0.2010000     -1.3822986E-24
  0.2015000     -1.6403223E-24
  0.2020000     -1.8387452E-24
  0.2025000     -1.9581762E-24
  0.2030000     -1.9811672E-24
  0.2035000     -1.8933417E-24
  0.2040000     -1.6844795E-24
  0.2045000     -1.3495006E-24
  0.2050000     -8.8930154E-25
  0.2055000     -3.1139010E-25
  0.2060000      3.6972306E-25
  0.2065000      1.1324159E-24
  0.2070000      1.9481583E-24
  0.2075000      2.7820489E-24
  0.2080000      3.5936977E-24
  0.2085000      4.3384518E-24
  0.2090000      4.9689536E-24
  0.2095000      5.4370057E-24
  0.2100000      5.6956972E-24
  0.2105000      5.7017379E-24
  0.2110000      5.4179235E-24
  0.2115000      4.8156499E-24
  0.2120000      3.8773634E-24
  0.2125000      2.5988387E-24
  0.2130000      9.9115403E-25
  0.2135000     -9.1776452E-25
  0.2140000     -3.0821557E-24
  0.2145000     -5.4381184E-24
  0.2150000     -7.9040920E-24
  0.2155000     -1.0382194E-23
  0.2160000     -1.2760472E-23
  0.2165000     -1.4916072E-23
  0.2170000     -1.6719287E-23
  0.2175000     -1.8038392E-23
  0.2180000     -1.8745145E-23
  0.2185000     -1.8720750E-23
  0.2190000     -1.7862065E-23
  0.2195000     -1.6087796E-23
  0.2200000     -1.3344392E-23
  0.2205000     -9.6113377E-24
  0.2210000     -4.9056033E-24
  0.2215000      7.1506543E-25
  0.2220000      7.1501958E-24
  0.2225000      1.4256137E-23
  0.2230000      2.1847227E-23
  0.2235000      2.9698606E-23
  0.2240000      3.7550628E-23
  0.2245000      4.5114719E-23
  0.2250000      5.2080587E-23
  0.2255000      5.8124458E-23
  0.2260000      6.2918120E-23
  0.2265000      6.6138509E-23
  0.2270000      6.7477508E-23
  0.2275000      6.6651792E-23
  0.2280000      6.3412376E-23
  0.2285000      5.7553828E-23
  0.2290000      4.8922951E-23
  0.2295000      3.7426925E-23
  0.2300000      2.3040893E-23
  0.2305000      5.8149884E-24
  0.2310000     -1.4119061E-23
  0.2315000     -3.6541845E-23
  0.2320000     -6.1140620E-23
  0.2325000     -8.7504188E-23
  0.2330000     -1.1511850E-22
  0.2335000     -1.4336338E-22
  0.2340000     -1.7151064E-22
  0.2345000     -1.9872432E-22
  0.2350000     -2.2406371E-22
  0.2355000     -2.4648985E-22
  0.2360000     -2.6487667E-22
  0.2365000     -2.7802727E-22
  0.2370000     -2.8469667E-22
  0.2375000     -2.8362124E-22
  0.2380000     -2.7355558E-22
  0.2385000     -2.5331694E-22
  0.2390000     -2.2183723E-22
  0.2395000     -1.7822136E-22
  0.2400000     -1.2181156E-22
  0.2405000     -5.2255418E-23
  0.2410000      3.0424525E-23
  0.2415000      1.2576219E-22
  0.2420000      2.3278377E-22
  0.2425000      3.4995160E-22
  0.2430000      4.7512009E-22
  0.2435000      6.0550737E-22
  0.2440000      7.3768708E-22
  0.2445000      8.6760361E-22
  0.2450000      9.9061411E-22
  0.2455000      1.1015602E-21
  0.2460000      1.1948700E-21
  0.2465000      1.2646926E-21
  0.2470000      1.3050630E-21
  0.2475000      1.3100957E-21
  0.2480000      1.2742039E-21
  0.2485000      1.1923404E-21
  0.2490000      1.0602511E-21
  0.2495000      8.7473683E-22
  0.2500000      6.3391242E-22
  0.2505000      3.3745435E-22
  0.2510000     -1.3172991E-23
  0.2515000     -4.1452401E-22
  0.2520000     -8.6102191E-22
  0.2525000     -1.3448619E-21
  0.2530000     -1.8559776E-21
  0.2535000     -2.3820790E-21
  0.2540000     -2.9087687E-21
  0.2545000     -3.4197412E-21
  0.2550000     -3.8970692E-21
  0.2555000     -4.3215760E-21
  0.2560000     -4.6732918E-21
  0.2565000     -4.9319873E-21
  0.2570000     -5.0777778E-21
  0.2575000     -5.0917882E-21
  0.2580000     -4.9568552E-21
  0.2585000     -4.6582616E-21
  0.2590000     -4.1844712E-21
  0.2595000     -3.5278526E-21
  0.2600000     -2.6853548E-21
  0.2605000     -1.6591228E-21
  0.2610000     -4.5701789E-22
  0.2615000      9.0698092E-22
  0.2620000      2.4125181E-21
  0.2625000      4.0327652E-21
  0.2630000      5.7345148E-21
  0.2635000      7.4784704E-21
  0.2640000      9.2197511E-21
  0.2645000      1.0908618E-20
  0.2650000      1.2491410E-20
  0.2655000      1.3911698E-20
  0.2660000      1.5111624E-20
  0.2665000      1.6033429E-20
  0.2670000      1.6621110E-20
  0.2675000      1.6822193E-20
  0.2680000      1.6589572E-20
  0.2685000      1.5883365E-20
  0.2690000      1.4672730E-20
  0.2695000      1.2937597E-20
  0.2700000      1.0670250E-20
  0.2705000      7.8767022E-21
  0.2710000      4.5778069E-21
  0.2715000      8.1005574E-22
  0.2720000     -3.3739916E-21
  0.2725000     -7.9056810E-21
  0.2730000     -1.2700674E-20
  0.2735000     -1.7659823E-20
  0.2740000     -2.2670513E-20
  0.2745000     -2.7608494E-20
  0.2750000     -3.2340161E-20
  0.2755000     -3.6725262E-20
  0.2760000     -4.0620019E-20
  0.2765000     -4.3880558E-20
  0.2770000     -4.6366643E-20
  0.2775000     -4.7945573E-20
  0.2780000     -4.8496181E-20
  0.2785000     -4.7912838E-20
  0.2790000     -4.6109332E-20
  0.2795000     -4.3022543E-20
  0.2800000     -3.8615760E-20
  0.2805000     -3.2881560E-20
  0.2810000     -2.5844140E-20
  0.2815000     -1.7560985E-20
  0.2820000     -8.1238062E-21
  0.2825000      2.3413075E-21
  0.2830000      1.3674609E-20
  0.2835000      2.5684268E-20
  0.2840000      3.8148833E-20
  0.2845000      5.0820552E-20
  0.2850000      6.3429489E-20
  0.2855000      7.5688357E-20
  0.2860000      8.7298018E-20
  0.2865000      9.7953449E-20
  0.2870000      1.0735014E-19
  0.2875000      1.1519070E-19
  0.2880000      1.2119149E-19
  0.2885000      1.2508920E-19
  0.2890000      1.2664730E-19
  0.2895000      1.2566188E-19
  0.2900000      1.2196719E-19
  0.2905000      1.1544037E-19
  0.2910000      1.0600568E-19
  0.2915000      9.3637711E-20
  0.2920000      7.8363983E-20
  0.2925000      6.0266609E-20
  0.2930000      3.9483195E-20
  0.2935000      1.6207013E-20
  0.2940000     -9.3135941E-21
  0.2945000     -3.6776305E-20
  0.2950000     -6.5826581E-20
  0.2955000     -9.6059890E-20
  0.2960000     -1.2702421E-19
  0.2965000     -1.5822294E-19
  0.2970000     -1.8911819E-19
  0.2975000     -2.1913444E-19
  0.2980000     -2.4766250E-19
  0.2985000     -2.7406404E-19
  0.2990000     -2.9767671E-19
  0.2995000     -3.1782021E-19
  0.3000000     -3.3380323E-19
  0.3005000     -3.4493170E-19
  0.3010000     -3.5051856E-19
  0.3015000     -3.4989541E-19
  0.3020000     -3.4242589E-19
  0.3025000     -3.2752136E-19
  0.3030000     -3.0465866E-19
  0.3035000     -2.7340015E-19
  0.3040000     -2.3341584E-19
  0.3045000     -1.8450704E-19
  0.3050000     -1.2663174E-19
  0.3055000     -5.9930159E-20
  0.3060000      1.5249482E-20
  0.3065000      9.8326501E-20
  0.3070000      1.8846527E-19
  0.3075000      2.8455639E-19
  0.3080000      3.8520279E-19
  0.3085000      4.8871201E-19
  0.3090000      5.9309636E-19
  0.3095000      6.9608189E-19
  0.3100000      7.9512798E-19
  0.3105000      8.8745799E-19
  0.3110000      9.7010212E-19
  0.3115000      1.0399530E-18
  0.3120000      1.0938325E-18
  0.3125000      1.1285720E-18
  0.3130000      1.1411023E-18
  0.3135000      1.1285529E-18
  0.3140000      1.0883596E-18
  0.3145000      1.0183743E-18
  0.3150000      9.1697893E-19
  0.3155000      7.8319477E-19
  0.3160000      6.1678717E-19
  0.3165000      4.1835918E-19
  0.3170000      1.8943143E-19
  0.3175000     -6.7496898E-20
  0.3180000     -3.4891024E-19
  0.3185000     -6.5026395E-19
  0.3190000     -9.6600251E-19
  0.3195000     -1.2896088E-18
  0.3200000     -1.6136875E-18
  0.3205000     -1.9300829E-18
  0.3210000     -2.2300291E-18
  0.3215000     -2.5043367E-18
  0.3220000     -2.7436063E-18
  0.3225000     -2.9384694E-18
  0.3230000     -3.0798515E-18
  0.3235000     -3.1592493E-18
  0.3240000     -3.1690181E-18
  0.3245000     -3.1026581E-18
  0.3250000     -2.9550943E-18
  0.3255000     -2.7229394E-18
  0.3260000     -2.4047323E-18
  0.3265000     -2.0011395E-18
  0.3270000     -1.5151162E-18
  0.3275000     -9.5201499E-19
  0.3280000     -3.1963704E-19
  0.3285000      3.7177997E-19
  0.3290000      1.1096419E-18
  0.3295000      1.8791490E-18
  0.3300000      2.6635179E-18
  0.3305000      3.4442740E-18
  0.3310000      4.2016102E-18
  0.3315000      4.9148078E-18
  0.3320000      5.5627115E-18
  0.3325000      6.1242517E-18
  0.3330000      6.5789971E-18
  0.3335000      6.9077328E-18
  0.3340000      7.0930440E-18
  0.3345000      7.1198959E-18
  0.3350000      6.9761857E-18
  0.3355000      6.6532626E-18
  0.3360000      6.1463895E-18
  0.3365000      5.4551379E-18
  0.3370000      4.5836965E-18
  0.3375000      3.5410878E-18
  0.3380000      2.3412733E-18
  0.3385000      1.0031394E-18
  0.3390000     -4.4963568E-19
  0.3395000     -1.9888505E-18
  0.3400000     -3.5821764E-18
  0.3405000     -5.1936818E-18
  0.3410000     -6.7844866E-18
  0.3415000     -8.3135283E-18
  0.3420000     -9.7384371E-18
  0.3425000     -1.1016502E-17
  0.3430000     -1.2105714E-17
  0.3435000     -1.2965853E-17
  0.3440000     -1.3559622E-17
  0.3445000     -1.3853775E-17
  0.3450000     -1.3820228E-17
  0.3455000     -1.3437121E-17
  0.3460000     -1.2689808E-17
  0.3465000     -1.1571728E-17
  0.3470000     -1.0085163E-17
  0.3475000     -8.2418159E-18
  0.3480000     -6.0632087E-18
  0.3485000     -3.5808781E-18
  0.3490000     -8.3633921E-19
  0.3495000      2.1191898E-18
  0.3500000      5.2253169E-18
  0.3505000      8.4132648E-18
  0.3510000      1.1606912E-17
  0.3515000      1.4724093E-17
  0.3520000      1.7678135E-17
  0.3525000      2.0379628E-17
  0.3530000      2.2738388E-17
  0.3535000      2.4665593E-17
  0.3540000      2.6076058E-17
  0.3545000      2.6890616E-17
  0.3550000      2.7038544E-17
  0.3555000      2.6459987E-17
  0.3560000      2.5108350E-17
  0.3565000      2.2952571E-17
  0.3570000      1.9979242E-17
  0.3575000      1.6194491E-17
  0.3580000      1.1625597E-17
  0.3585000      6.3222481E-18
  0.3590000      3.5740212E-19
  0.3595000     -6.1723105E-18
  0.3600000     -1.3146695E-17
  0.3605000     -2.0422661E-17
  0.3610000     -2.7835485E-17
  0.3615000     -3.5200711E-17
  0.3620000     -4.2316687E-17
  0.3625000     -4.8967782E-17
  0.3630000     -5.4928250E-17
  0.3635000     -5.9966750E-17
  0.3640000     -6.3851455E-17
  0.3645000     -6.6355760E-17
  0.3650000     -6.7264455E-17
  0.3655000     -6.6380318E-17
  0.3660000     -6.3531018E-17
  0.3665000     -5.8576147E-17
  0.3670000     -5.1414337E-17
  0.3675000     -4.1990140E-17
  0.3680000     -3.0300655E-17
  0.3685000     -1.6401561E-17
  0.3690000     -4.1241312E-19
  0.3695000      1.7479051E-17
  0.3700000      3.7013818E-17
  0.3705000      5.7859980E-17
  0.3710000      7.9612799E-17
  0.3715000      1.0179654E-16
  0.3720000      1.2386855E-16
  0.3725000      1.4522540E-16
  0.3730000      1.6521155E-16
  0.3735000      1.8313020E-16
  0.3740000      1.9825674E-16
  0.3745000      2.0985449E-16
  0.3750000      2.1719265E-16
  0.3755000      2.1956633E-16
  0.3760000      2.1631820E-16
  0.3765000      2.0686159E-16
  0.3770000      1.9070440E-16
  0.3775000      1.6747336E-16
  0.3780000      1.3693796E-16
  0.3785000      9.9033431E-17
  0.3790000      5.3881900E-17
  0.3795000      1.8110977E-18
  0.3800000     -5.6630419E-17
  0.3805000     -1.2066212E-16
  0.3810000     -1.8926544E-16
  0.3815000     -2.6118324E-16
  0.3820000     -3.3492596E-16
  0.3825000     -4.0878445E-16
  0.3830000     -4.8085033E-16
  0.3835000     -5.4904390E-16
  0.3840000     -6.1115005E-16
  0.3845000     -6.6486131E-16
  0.3850000     -7.0782864E-16
  0.3855000     -7.3771879E-16
  0.3860000     -7.5227707E-16
  0.3865000     -7.4939562E-16
  0.3870000     -7.2718414E-16
  0.3875000     -6.8404332E-16
  0.3880000     -6.1873803E-16
  0.3885000     -5.3046799E-16
  0.3890000     -4.1893527E-16
  0.3895000     -2.8440510E-16
  0.3900000     -1.2775826E-16
  0.3905000      4.9467432E-17
  0.3910000      2.4504843E-16
  0.3915000      4.5606191E-16
  0.3920000      6.7888913E-16
  0.3925000      9.0923672E-16
  0.3930000      1.1421784E-15
  0.3935000      1.3722166E-15
  0.3940000      1.5933647E-15
  0.3945000      1.7992504E-15
  0.3950000      1.9832383E-15
  0.3955000      2.1385716E-15
  0.3960000      2.2585301E-15
  0.3965000      2.3366020E-15
  0.3970000      2.3666668E-15
  0.3975000      2.3431851E-15
  0.3980000      2.2613923E-15
  0.3985000      2.1174896E-15
  0.3990000      1.9088286E-15
  0.3995000      1.6340835E-15
  0.4000000      1.2934068E-15
  0.4005000      8.8856191E-16
  0.4010000      4.2302697E-16
  0.4015000     -9.7933817E-17
  0.4020000     -6.6723697E-16
  0.4025000     -1.2759883E-15
  0.4030000     -1.9135374E-15
  0.4035000     -2.5675779E-15
  0.4040000     -3.2242987E-15
  0.4045000     -3.8685841E-15
  0.4050000     -4.4842627E-15
  0.4055000     -5.0544023E-15
  0.4060000     -5.5616476E-15
  0.4065000     -5.9885987E-15
  0.4070000     -6.3182178E-15
  0.4075000     -6.5342658E-15
  0.4080000     -6.6217504E-15
  0.4085000     -6.5673836E-15
  0.4090000     -6.3600350E-15
  0.4095000     -5.9911708E-15
  0.4100000     -5.4552640E-15
  0.4105000     -4.7501714E-15
  0.4110000     -3.8774538E-15
  0.4115000     -2.8426381E-15
  0.4120000     -1.6554055E-15
  0.4125000     -3.2969725E-16
  0.4130000      1.1162684E-15
  0.4135000      2.6600813E-15
  0.4140000      4.2753272E-15
  0.4145000      5.9318780E-15
  0.4150000      7.5962957E-15
  0.4155000      9.2323398E-15
  0.4160000      1.0801573E-14
  0.4165000      1.2264071E-14
  0.4170000      1.3579206E-14
  0.4175000      1.4706511E-14
  0.4180000      1.5606601E-14
  0.4185000      1.6242136E-14
  0.4190000      1.6578798E-14
  0.4195000      1.6586281E-14
  0.4200000      1.6239255E-14
  0.4205000      1.5518272E-14
  0.4210000      1.4410636E-14
  0.4215000      1.2911143E-14
  0.4220000      1.1022734E-14
  0.4225000      8.7569976E-15
  0.4230000      6.1345201E-15
  0.4235000      3.1850550E-15
  0.4240000     -5.2491687E-17
  0.4245000     -3.5302806E-15
  0.4250000     -7.1919704E-15
  0.4255000     -1.0973359E-14
  0.4260000     -1.4803244E-14
  0.4265000     -1.8604479E-14
  0.4270000     -2.2295239E-14
  0.4275000     -2.5790463E-14
  0.4280000     -2.9003452E-14
  0.4285000     -3.1847619E-14
  0.4290000     -3.4238336E-14
  0.4295000     -3.6094835E-14
  0.4300000     -3.7342186E-14
  0.4305000     -3.7913235E-14
  0.4310000     -3.7750524E-14
  0.4315000     -3.6808088E-14
  0.4320000     -3.5053174E-14
  0.4325000     -3.2467722E-14
  0.4330000     -2.9049669E-14
  0.4335000     -2.4813972E-14
  0.4340000     -1.9793368E-14
  0.4345000     -1.4038764E-14
  0.4350000     -7.6193138E-15
  0.4355000     -6.2208826E-16
  0.4360000      6.8486286E-15
  0.4365000      1.4672447E-14
  0.4370000      2.2714362E-14
  0.4375000      3.0826653E-14
  0.4380000      3.8851138E-14
  0.4385000      4.6621774E-14
  0.4390000      5.3967579E-14
  0.4395000      6.0715796E-14
  0.4400000      6.6695279E-14
  0.4405000      7.1740065E-14
  0.4410000      7.5693005E-14
  0.4415000      7.8409427E-14
  0.4420000      7.9760790E-14
  0.4425000      7.9638126E-14
  0.4430000      7.7955376E-14
  0.4435000      7.4652429E-14
  0.4440000      6.9697733E-14
  0.4445000      6.3090544E-14
  0.4450000      5.4862697E-14
  0.4455000      4.5079761E-14
  0.4460000      3.3841623E-14
  0.4465000      2.1282397E-14
  0.4470000      7.5696954E-15
  0.4475000     -7.0968715E-15
  0.4480000     -2.2487871E-14
  0.4485000     -3.8346920E-14
  0.4490000     -5.4394267E-14
  0.4495000     -7.0331009E-14
  0.4500000     -8.5843916E-14
  0.4505000     -1.0061077E-13
  0.4510000     -1.1430622E-13
  0.4515000     -1.2660788E-13
  0.4520000     -1.3720287E-13
  0.4525000     -1.4579433E-13
  0.4530000     -1.5210808E-13
  0.4535000     -1.5589907E-13
  0.4540000     -1.5695770E-13
  0.4545000     -1.5511571E-13
  0.4550000     -1.5025161E-13
  0.4555000     -1.4229541E-13
  0.4560000     -1.3123262E-13
  0.4565000     -1.1710743E-13
  0.4570000     -1.0002478E-13
  0.4575000     -8.0151536E-14
  0.4580000     -5.7716357E-14
  0.4585000     -3.3008457E-14
  0.4590000     -6.3751092E-15
  0.4595000      2.1782091E-14
  0.4600000      5.1012193E-14
  0.4605000      8.0821045E-14
  0.4610000      1.1067861E-13
  0.4615000      1.4002731E-13
  0.4620000      1.6829131E-13
  0.4625000      1.9488660E-13
  0.4630000      2.1923172E-13
  0.4635000      2.4075888E-13
  0.4640000      2.5892558E-13
  0.4645000      2.7322608E-13
  0.4650000      2.8320269E-13
  0.4655000      2.8845700E-13
  0.4660000      2.8865999E-13
  0.4665000      2.8356183E-13
  0.4670000      2.7300016E-13
  0.4675000      2.5690745E-13
  0.4680000      2.3531676E-13
  0.4685000      2.0836573E-13
  0.4690000      1.7629894E-13
  0.4695000      1.3946826E-13
  0.4700000      9.8331106E-14
  0.4705000      5.3446735E-14
  0.4710000      5.4703082E-15
  0.4715000     -4.4855023E-14
  0.4720000     -9.6708198E-14
  0.4725000     -1.4920217E-13
  0.4730000     -2.0139767E-13
  0.4735000     -2.5231857E-13
  0.4740000     -3.0096861E-13
  0.4745000     -3.4634941E-13
  0.4750000     -3.8747892E-13
  0.4755000     -4.2341082E-13
  0.4760000     -4.5325386E-13
  0.4765000     -4.7619103E-13
  0.4770000     -4.9149796E-13
  0.4775000     -4.9856094E-13
  0.4780000     -4.9689278E-13
  0.4785000     -4.8614785E-13
  0.4790000     -4.6613418E-13
  0.4795000     -4.3682375E-13
  0.4800000     -3.9835989E-13
  0.4805000     -3.5106182E-13
  0.4810000     -2.9542585E-13
  0.4815000     -2.3212351E-13
  0.4820000     -1.6199604E-13
  0.4825000     -8.6045523E-14
  0.4830000     -5.4226977E-15