  0.0000000E+00  0.0000000E+00
  5.0000002E-04  0.0000000E+00
  1.0000000E-03  0.0000000E+00
  1.5000000E-03  0.0000000E+00
  2.0000001E-03  0.0000000E+00
  2.4999999E-03  0.0000000E+00
  3.0000000E-03  0.0000000E+00
  3.5000001E-03  0.0000000E+00
  4.0000002E-03  0.0000000E+00
  4.4999998E-03  0.0000000E+00
  4.9999999E-03  0.0000000E+00
  5.5000000E-03  0.0000000E+00
  6.0000001E-03  0.0000000E+00
  6.5000001E-03  0.0000000E+00
  7.0000002E-03  0.0000000E+00
  7.4999998E-03  0.0000000E+00
  8.0000004E-03  0.0000000E+00
  8.5000005E-03  0.0000000E+00
  8.9999996E-03  0.0000000E+00
  9.4999997E-03  0.0000000E+00
  9.9999998E-03  0.0000000E+00
  1.0500000E-02  0.0000000E+00
  1.1000000E-02  0.0000000E+00
  1.1500000E-02  0.0000000E+00
  1.2000000E-02  0.0000000E+00
  1.2500000E-02  0.0000000E+00
  1.3000000E-02  0.0000000E+00
  1.3500000E-02  0.0000000E+00
  1.4000000E-02  0.0000000E+00
  1.4500000E-02  0.0000000E+00
  1.5000000E-02  0.0000000E+00
  1.5500000E-02  0.0000000E+00
  1.6000001E-02  0.0000000E+00
  1.6500000E-02  0.0000000E+00
  1.7000001E-02  0.0000000E+00
  1.7500000E-02  0.0000000E+00
  1.7999999E-02  0.0000000E+00
  1.8500000E-02  0.0000000E+00
  1.8999999E-02  0.0000000E+00
  1.9500000E-02  0.0000000E+00
  2.0000000E-02  0.0000000E+00
  2.0500001E-02  0.0000000E+00
  2.1000000E-02  0.0000000E+00
  2.1500001E-02  0.0000000E+00
  2.2000000E-02  0.0000000E+00
  2.2500001E-02  0.0000000E+00
  2.3000000E-02  0.0000000E+00
  2.3499999E-02  0.0000000E+00
  2.4000000E-02  0.0000000E+00
  2.4499999E-02  0.0000000E+00
  2.5000000E-02  0.0000000E+00
  2.5500000E-02  0.0000000E+00
  2.6000001E-02  0.0000000E+00
  2.6500000E-02  0.0000000E+00
  2.7000001E-02  0.0000000E+00
  2.7500000E-02  0.0000000E+00
  2.8000001E-02  0.0000000E+00
  2.8500000E-02  0.0000000E+00
  2.8999999E-02  0.0000000E+00
  2.9500000E-02  0.0000000E+00
  2.9999999E-02  0.0000000E+00
  3.0500000E-02  0.0000000E+00
  3.0999999E-02  0.0000000E+00
  3.1500001E-02  0.0000000E+00
  3.2000002E-02  0.0000000E+00
  3.2499999E-02  0.0000000E+00
  3.3000000E-02  0.0000000E+00
  3.3500001E-02  0.0000000E+00
  3.4000002E-02  0.0000000E+00
  3.4499999E-02  0.0000000E+00
  3.5000000E-02  0.0000000E+00
  3.5500001E-02  0.0000000E+00
  3.5999998E-02  0.0000000E+00
  3.6499999E-02  0.0000000E+00
  3.7000000E-02  0.0000000E+00
  3.7500001E-02  0.0000000E+00
  3.7999999E-02  0.0000000E+00
  3.8500000E-02  0.0000000E+00
  3.9000001E-02  0.0000000E+00
  3.9500002E-02  0.0000000E+00
  3.9999999E-02  0.0000000E+00
  4.0500000E-02  0.0000000E+00
  4.1000001E-02  0.0000000E+00
  4.1499998E-02  0.0000000E+00
  4.1999999E-02  0.0000000E+00
  4.2500000E-02  0.0000000E+00
  4.3000001E-02  0.0000000E+00
  4.3499999E-02  0.0000000E+00
  4.4000000E-02  0.0000000E+00
  4.4500001E-02  0.0000000E+00
  4.5000002E-02  0.0000000E+00
  4.5499999E-02  0.0000000E+00
  4.6000000E-02  0.0000000E+00
  4.6500001E-02  0.0000000E+00
  4.6999998E-02  0.0000000E+00
  4.7499999E-02  0.0000000E+00
  4.8000000E-02  0.0000000E+00
  4.8500001E-02  0.0000000E+00
  4.8999999E-02  0.0000000E+00
  4.9500000E-02  0.0000000E+00
  5.0000001E-02  0.0000000E+00
  5.0500002E-02  0.0000000E+00
  5.0999999E-02  0.0000000E+00
  5.1500000E-02  0.0000000E+00
  5.2000001E-02  0.0000000E+00
  5.2499998E-02  0.0000000E+00
  5.2999999E-02  0.0000000E+00
  5.3500000E-02  0.0000000E+00
  5.4000001E-02  0.0000000E+00
  5.4499999E-02  0.0000000E+00
  5.5000000E-02  0.0000000E+00
  5.5500001E-02  0.0000000E+00
  5.6000002E-02  0.0000000E+00
  5.6499999E-02  0.0000000E+00
  5.7000000E-02  0.0000000E+00
  5.7500001E-02  0.0000000E+00
  5.7999998E-02  0.0000000E+00
  5.8499999E-02  0.0000000E+00
  5.9000000E-02  0.0000000E+00
  5.9500001E-02  0.0000000E+00
  5.9999999E-02  0.0000000E+00
  6.0500000E-02  0.0000000E+00
  6.1000001E-02  0.0000000E+00
  6.1500002E-02  0.0000000E+00
  6.1999999E-02  0.0000000E+00
  6.2500000E-02  0.0000000E+00
  6.3000001E-02  0.0000000E+00
  6.3500002E-02  0.0000000E+00
  6.4000003E-02  0.0000000E+00
  6.4499997E-02  0.0000000E+00
  6.4999998E-02  0.0000000E+00
  6.5499999E-02  0.0000000E+00
  6.6000000E-02  0.0000000E+00
  6.6500001E-02  0.0000000E+00
  6.7000002E-02  0.0000000E+00
  6.7500003E-02  0.0000000E+00
  6.8000004E-02  0.0000000E+00
  6.8499997E-02  0.0000000E+00
  6.8999998E-02  0.0000000E+00
  6.9499999E-02  0.0000000E+00
  7.0000000E-02  0.0000000E+00
  7.0500001E-02  0.0000000E+00
  7.1000002E-02  0.0000000E+00
  7.1500003E-02  0.0000000E+00
  7.1999997E-02  0.0000000E+00
  7.2499998E-02  0.0000000E+00
  7.2999999E-02  0.0000000E+00
  7.3500000E-02  0.0000000E+00
  7.4000001E-02  0.0000000E+00
  7.4500002E-02  0.0000000E+00
  7.5000003E-02  0.0000000E+00
  7.5499997E-02  0.0000000E+00
  7.5999998E-02  0.0000000E+00
  7.6499999E-02  0.0000000E+00
  7.7000000E-02  0.0000000E+00
  7.7500001E-02  0.0000000E+00
  7.8000002E-02  0.0000000E+00
  7.8500003E-02  0.0000000E+00
  7.9000004E-02  0.0000000E+00
  7.9499997E-02  0.0000000E+00
  7.9999998E-02  0.0000000E+00
  8.0499999E-02  0.0000000E+00
  8.1000000E-02  0.0000000E+00
  8.1500001E-02  0.0000000E+00
  8.2000002E-02  0.0000000E+00
  8.2500003E-02  0.0000000E+00
  8.2999997E-02  0.0000000E+00
  8.3499998E-02  0.0000000E+00
  8.3999999E-02  0.0000000E+00
  8.4500000E-02  0.0000000E+00
  8.5000001E-02  0.0000000E+00
  8.5500002E-02 -1.1992045E-38
  8.6000003E-02 -1.6544212E-38
  8.6499996E-02 -2.1041423E-38
  8.6999997E-02 -2.4443830E-38
  8.7499999E-02 -2.5540425E-38
  8.8000000E-02 -2.3399612E-38
  8.8500001E-02 -2.0412577E-38
  8.9000002E-02 -1.5505070E-38
  8.9500003E-02 -1.5087670E-38
  9.0000004E-02 -1.2129446E-38
  9.0499997E-02  0.0000000E+00
  9.0999998E-02  1.2467776E-38
  9.1499999E-02  3.4240467E-38
  9.2000000E-02  6.1942756E-38
  9.2500001E-02  9.4683192E-38
  9.3000002E-02  1.2869615E-37
  9.3500003E-02  1.6073822E-37
  9.3999997E-02  1.8656757E-37
  9.4499998E-02  1.9728753E-37
  9.4999999E-02  1.8355377E-37
  9.5500000E-02  1.5445841E-37
  9.6000001E-02  9.5897703E-38
  9.6500002E-02  0.0000000E+00
  9.7000003E-02 -1.2347082E-37
  9.7499996E-02 -2.8404753E-37
  9.7999997E-02 -4.7166877E-37
  9.8499998E-02 -6.7506847E-37
  9.8999999E-02 -8.7761839E-37
  9.9500000E-02 -1.0572892E-36
  0.1000000     -1.1873855E-36
  0.1005000     -1.2379698E-36
  0.1010000     -1.1778783E-36
  0.1015000     -9.7745873E-37
  0.1020000     -6.1191045E-37
  0.1025000     -6.4999683E-38
  0.1030000      6.6705856E-37
  0.1035000      1.5719084E-36
  0.1040000      2.6179383E-36
  0.1045000      3.7521781E-36
  0.1050000      4.8997035E-36
  0.1055000      5.9648019E-36
  0.1060000      6.8343955E-36
  0.1065000      7.3837662E-36
  0.1070000      7.4845793E-36
  0.1075000      7.0149197E-36
  0.1080000      5.8707835E-36
  0.1085000      3.9782176E-36
  0.1090000      1.3050926E-36
  0.1095000     -2.1286996E-36
  0.1100000     -6.2438401E-36
  0.1105000     -1.0898019E-35
  0.1110000     -1.5887112E-35
  0.1115000     -2.0951468E-35
  0.1120000     -2.5787241E-35
  0.1125000     -3.0061908E-35
  0.1130000     -3.3432635E-35
  0.1135000     -3.5565546E-35
  0.1140000     -3.6153520E-35
  0.1145000     -3.4930222E-35
  0.1150000     -3.1678359E-35
  0.1155000     -2.6230849E-35
  0.1160000     -1.8464798E-35
  0.1165000     -8.2897355E-36
  0.1170000      4.3668654E-36
  0.1175000      1.9572002E-35
  0.1180000      3.7391456E-35
  0.1185000      5.7879396E-35
  0.1190000      8.1046564E-35
  0.1195000      1.0680239E-34
  0.1200000      1.3486827E-34
  0.1205000      1.6466429E-34
  0.1210000      1.9517591E-34
  0.1215000      2.2481357E-34
  0.1220000      2.5128345E-34
  0.1225000      2.7149328E-34
  0.1230000      2.8151997E-34
  0.1235000      2.7666704E-34
  0.1240000      2.5163702E-34
  0.1245000      2.0083854E-34
  0.1250000      1.1883669E-34
  0.1255000      9.4206960E-37
  0.1260000     -1.5608320E-34
  0.1265000     -3.5324152E-34
  0.1270000     -5.8849623E-34
  0.1275000     -8.5602061E-34
  0.1280000     -1.1455848E-33
  0.1285000     -1.4421671E-33
  0.1290000     -1.7258799E-33
  0.1295000     -1.9722806E-33
  0.1300000     -2.1531209E-33
  0.1305000     -2.2375643E-33
  0.1310000     -2.1938576E-33
  0.1315000     -1.9914143E-33
  0.1320000     -1.6032250E-33
  0.1325000     -1.0084794E-33
  0.1330000     -1.9525611E-34
  0.1335000      8.3688062E-34
  0.1340000      2.0745459E-33
  0.1345000      3.4886299E-33
  0.1350000      5.0329724E-33
  0.1355000      6.6437582E-33
  0.1360000      8.2397379E-33
  0.1365000      9.7233785E-33
  0.1370000      1.0982996E-32
  0.1375000      1.1895929E-32
  0.1380000      1.2332794E-32
  0.1385000      1.2162855E-32
  0.1390000      1.1260479E-32
  0.1395000      9.5127218E-33
  0.1400000      6.8279060E-33
  0.1405000      3.1450961E-33
  0.1410000     -1.5557859E-33
  0.1415000     -7.2435674E-33
  0.1420000     -1.3825703E-32
  0.1425000     -2.1139122E-32
  0.1430000     -2.8942913E-32
  0.1435000     -3.6913885E-32
  0.1440000     -4.4646113E-32
  0.1445000     -5.1655595E-32
  0.1450000     -5.7391049E-32
  0.1455000     -6.1251613E-32
  0.1460000     -6.2611943E-32
  0.1465000     -6.0854555E-32
  0.1470000     -5.5408766E-32
  0.1475000     -4.5794877E-32
  0.1480000     -3.1671435E-32
  0.1485000     -1.2882930E-32
  0.1490000      1.0495340E-32
  0.1495000      3.8118796E-32
  0.1500000      6.9345098E-32
  0.1505000      1.0321898E-31
  0.1510000      1.3847320E-31
  0.1515000      1.7354746E-31
  0.1520000      2.0662602E-31
  0.1525000      2.3569388E-31
  0.1530000      2.5860913E-31
  0.1535000      2.7318940E-31
  0.1540000      2.7730800E-31
  0.1545000      2.6899564E-31
  0.1550000      2.4654337E-31
  0.1555000      2.0860271E-31
  0.1560000      1.5427958E-31
  0.1565000      8.3219587E-32
  0.1570000     -4.3155829E-33
  0.1575000     -1.0738161E-31
  0.1580000     -2.2429316E-31
  0.1585000     -3.5257333E-31
  0.1590000     -4.8891001E-31
  0.1595000     -6.2912081E-31
  0.1600000     -7.6812965E-31
  0.1605000     -8.9996167E-31
  0.1610000     -1.0177666E-30
  0.1615000     -1.1138825E-30
  0.1620000     -1.1799562E-30
  0.1625000     -1.2071379E-30
  0.1630000     -1.1863648E-30
  0.1635000     -1.1087457E-30
  0.1640000     -9.6605737E-31
  0.1645000     -7.5134608E-31
  0.1650000     -4.5962501E-31
  0.1655000     -8.8640550E-32
  0.1660000      3.6033496E-31
  0.1665000      8.8173333E-31
  0.1670000      1.4650137E-30
  0.1675000      2.0941479E-30
  0.1680000      2.7473468E-30
  0.1685000      3.3971016E-30
  0.1690000      4.0105990E-30
  0.1695000      4.5505572E-30
  0.1700000      4.9765007E-30
  0.1705000      5.2464668E-30
  0.1710000      5.3190890E-30
  0.1715000      5.1559917E-30
  0.1720000      4.7243660E-30
  0.1725000      3.9996009E-30
  0.1730000      2.9677992E-30
  0.1735000      1.6280149E-30
  0.1740000     -5.9541000E-33
  0.1745000     -1.9043618E-30
  0.1750000     -4.0210145E-30
  0.1755000     -6.2935558E-30
  0.1760000     -8.6445576E-30
  0.1765000     -1.0983397E-29
  0.1770000     -1.3208846E-29
  0.1775000     -1.5212265E-29
  0.1780000     -1.6881241E-29
  0.1785000     -1.8103538E-29
  0.1790000     -1.8771189E-29
  0.1795000     -1.8784571E-29
  0.1800000     -1.8056398E-29
  0.1805000     -1.6515511E-29
  0.1810000     -1.4110500E-29
  0.1815000     -1.0813107E-29
  0.1820000     -6.6215112E-30
  0.1825000     -1.5634749E-30
  0.1830000      4.3005737E-30
  0.1835000      1.0874583E-29
  0.1840000      1.8024134E-29
  0.1845000      2.5574111E-29
  0.1850000      3.3307117E-29
  0.1855000      4.0962998E-29
  0.1860000      4.8240049E-29
  0.1865000      5.4798400E-29
  0.1870000      6.0266182E-29
  0.1875000      6.4248951E-29
  0.1880000      6.6342683E-29
  0.1885000      6.6150578E-29
  0.1890000      6.3303355E-29
  0.1895000      5.7482713E-29
  0.1900000      4.8446861E-29
  0.1905000      3.6057050E-29
  0.1910000      2.0303325E-29
  0.1915000      1.3277266E-30
  0.1920000     -2.0557211E-29
  0.1925000     -4.4856554E-29
  0.1930000     -7.0889732E-29
  0.1935000     -9.7797296E-29
  0.1940000     -1.2455887E-28
  0.1945000     -1.5002246E-28
  0.1950000     -1.7294480E-28
  0.1955000     -1.9204143E-28
  0.1960000     -2.0604439E-28
  0.1965000     -2.1376472E-28
  0.1970000     -2.1415640E-28
  0.1975000     -2.0637798E-28
  0.1980000     -1.8984829E-28
  0.1985000     -1.6429227E-28
  0.1990000     -1.2977434E-28
  0.1995000     -8.6716681E-29
  0.2000000     -3.5901567E-29
  0.2005000      2.1542854E-29
  0.2010000      8.4171974E-29
  0.2015000      1.5026753E-28
  0.2020000      2.1789081E-28
  0.2025000      2.8494290E-28
  0.2030000      3.4922835E-28
  0.2035000      4.0851873E-28
  0.2040000      4.6061349E-28
  0.2045000      5.0339524E-28
  0.2050000      5.3487976E-28
  0.2055000      5.5325939E-28
  0.2060000      5.5694259E-28
  0.2065000      5.4459011E-28
  0.2070000      5.1515169E-28
  0.2075000      4.6790492E-28
  0.2080000      4.0249856E-28
  0.2085000      3.1900076E-28
  0.2090000      2.1795191E-28
  0.2095000      1.0041915E-28
  0.2100000     -3.1952099E-29
  0.2105000     -1.7689582E-28
  0.2110000     -3.3150055E-28
  0.2115000     -4.9221006E-28
  0.2120000     -6.5485865E-28
  0.2125000     -8.1474666E-28
  0.2130000     -9.6676262E-28
  0.2135000     -1.1055512E-27
  0.2140000     -1.2257248E-27
  0.2145000     -1.3221094E-27
  0.2150000     -1.3900122E-27
  0.2155000     -1.4254928E-27
  0.2160000     -1.4256161E-27
  0.2165000     -1.3886639E-27
  0.2170000     -1.3142817E-27
  0.2175000     -1.2035393E-27
  0.2180000     -1.0588906E-27
  0.2185000     -8.8402062E-28
  0.2190000     -6.8358163E-28
  0.2195000     -4.6283024E-28
  0.2200000     -2.2718270E-28
  0.2205000      1.8274722E-29
  0.2210000      2.6928425E-28
  0.2215000      5.2287217E-28
  0.2220000      7.7771545E-28
  0.2225000      1.0343677E-27
  0.2230000      1.2953040E-27
  0.2235000      1.5647516E-27
  0.2240000      1.8482911E-27
  0.2245000      2.1522283E-27
  0.2250000      2.4827598E-27
  0.2255000      2.8449777E-27
  0.2260000      3.2417669E-27
  0.2265000      3.6726891E-27
  0.2270000      4.1329274E-27
  0.2275000      4.6124015E-27
  0.2280000      5.0951336E-27
  0.2285000      5.5589599E-27
  0.2290000      5.9756410E-27
  0.2295000      6.3114192E-27
  0.2300000      6.5280289E-27
  0.2305000      6.5841428E-27
  0.2310000      6.4371905E-27
  0.2315000      6.0454691E-27
  0.2320000      5.3704368E-27
  0.2325000      4.3790605E-27
  0.2330000      3.0460778E-27
  0.2335000      1.3560479E-27
  0.2340000     -6.9492261E-28
  0.2345000     -3.0978841E-27
  0.2350000     -5.8302264E-27
  0.2355000     -8.8553604E-27
  0.2360000     -1.2122891E-26
  0.2365000     -1.5569213E-26
  0.2370000     -1.9118445E-26
  0.2375000     -2.2683601E-26
  0.2380000     -2.6167872E-26
  0.2385000     -2.9465899E-26
  0.2390000     -3.2464991E-26
  0.2395000     -3.5046150E-26
  0.2400000     -3.7085032E-26
  0.2405000     -3.8452754E-26
  0.2410000     -3.9016774E-26
  0.2415000     -3.8641960E-26
  0.2420000     -3.7192071E-26
  0.2425000     -3.4531915E-26
  0.2430000     -3.0530399E-26
  0.2435000     -2.5064746E-26
  0.2440000     -1.8025992E-26
  0.2445000     -9.3259398E-27
  0.2450000      1.0945239E-27
  0.2455000      1.3255818E-26
  0.2460000      2.7129121E-26
  0.2465000      4.2625245E-26
  0.2470000      5.9583570E-26
  0.2475000      7.7761693E-26
  0.2480000      9.6826599E-26
  0.2485000      1.1634823E-25
  0.2490000      1.3579620E-25
  0.2495000      1.5454065E-25
  0.2500000      1.7185759E-25
  0.2505000      1.8693971E-25
  0.2510000      1.9891258E-25
  0.2515000      2.0685656E-25
  0.2520000      2.0983404E-25
  0.2525000      2.0692186E-25
  0.2530000      1.9724756E-25
  0.2535000      1.8002913E-25
  0.2540000      1.5461648E-25
  0.2545000      1.2053344E-25
  0.2550000      7.7518730E-26
  0.2555000      2.5564266E-26
  0.2560000     -3.5050708E-26
  0.2565000     -1.0373133E-25
  0.2570000     -1.7954573E-25
  0.2575000     -2.6121216E-25
  0.2580000     -3.4709545E-25
  0.2585000     -4.3521328E-25
  0.2590000     -5.2325356E-25
  0.2595000     -6.0860259E-25
  0.2600000     -6.8838463E-25
  0.2605000     -7.5951247E-25
  0.2610000     -8.1874912E-25
  0.2615000     -8.6278023E-25
  0.2620000     -8.8829672E-25
  0.2625000     -8.9208641E-25
  0.2630000     -8.7113505E-25
  0.2635000     -8.2273366E-25
  0.2640000     -7.4459260E-25
  0.2645000     -6.3495917E-25
  0.2650000     -4.9273692E-25
  0.2655000     -3.1760358E-25
  0.2660000     -1.1012416E-25
  0.2665000      1.2814483E-25
  0.2670000      3.9456453E-25
  0.2675000      6.8534165E-25
  0.2680000      9.9547975E-25
  0.2685000      1.3187609E-24
  0.2690000      1.6477613E-24
  0.2695000      1.9739077E-24
  0.2700000      2.2875771E-24
  0.2705000      2.5782455E-24
  0.2710000      2.8346851E-24
  0.2715000      3.0452123E-24
  0.2720000      3.1979829E-24
  0.2725000      3.2813334E-24
  0.2730000      3.2841587E-24
  0.2735000      3.1963216E-24
  0.2740000      3.0090803E-24
  0.2745000      2.7155247E-24
  0.2750000      2.3110031E-24
  0.2755000      1.7935301E-24
  0.2760000      1.1641518E-24
  0.2765000      4.2726166E-25
  0.2770000     -4.0915792E-25
  0.2775000     -1.3333762E-24
  0.2780000     -2.3298516E-24
  0.2785000     -3.3792766E-24
  0.2790000     -4.4587404E-24
  0.2795000     -5.5420058E-24
  0.2800000     -6.5999148E-24
  0.2805000     -7.6009060E-24
  0.2810000     -8.5116514E-24
  0.2815000     -9.2977931E-24
  0.2820000     -9.9247758E-24
  0.2825000     -1.0358761E-23
  0.2830000     -1.0567589E-23
  0.2835000     -1.0521797E-23
  0.2840000     -1.0195644E-23
  0.2845000     -9.5681413E-24
  0.2850000     -8.6240444E-24
  0.2855000     -7.3547987E-24
  0.2860000     -5.7594060E-24
  0.2865000     -3.8451782E-24
  0.2870000     -1.6283655E-24
  0.2875000      8.6537893E-25
  0.2880000      3.6007110E-24
  0.2885000      6.5325213E-24
  0.2890000      9.6060855E-24
  0.2895000      1.2757473E-23
  0.2900000      1.5914212E-23
  0.2905000      1.8996241E-23
  0.2910000      2.1917145E-23
  0.2915000      2.4585688E-23
  0.2920000      2.6907619E-23
  0.2925000      2.8787759E-23
  0.2930000      3.0132344E-23
  0.2935000      3.0851577E-23
  0.2940000      3.0862372E-23
  0.2945000      3.0091207E-23
  0.2950000      2.8477080E-23
  0.2955000      2.5974424E-23
  0.2960000      2.2555952E-23
  0.2965000      1.8215336E-23
  0.2970000      1.2969608E-23
  0.2975000      6.8612069E-24
  0.2980000     -4.0441688E-26
  0.2985000     -7.6379225E-24
  0.2990000     -1.5805464E-23
  0.2995000     -2.4389333E-23
  0.3000000     -3.3209025E-23
  0.3005000     -4.2059343E-23
  0.3010000     -5.0713368E-23
  0.3015000     -5.8926376E-23
  0.3020000     -6.6440649E-23
  0.3025000     -7.2991135E-23
  0.3030000     -7.8311983E-23
  0.3035000     -8.2143651E-23
  0.3040000     -8.4240708E-23
  0.3045000     -8.4379895E-23
  0.3050000     -8.2368451E-23
  0.3055000     -7.8052403E-23
  0.3060000     -7.1324537E-23
  0.3065000     -6.2131852E-23
  0.3070000     -5.0482226E-23
  0.3075000     -3.6449956E-23
  0.3080000     -2.0179991E-23
  0.3085000     -1.8905706E-24
  0.3090000      1.8125927E-23
  0.3095000      3.9504157E-23
  0.3100000      6.1809051E-23
  0.3105000      8.4541365E-23
  0.3110000      1.0714535E-22
  0.3115000      1.2901878E-22
  0.3120000      1.4952500E-22
  0.3125000      1.6800696E-22
  0.3130000      1.8380305E-22
  0.3135000      1.9626431E-22
  0.3140000      2.0477282E-22
  0.3145000      2.0876068E-22
  0.3150000      2.0772938E-22
  0.3155000      2.0126892E-22
  0.3160000      1.8907614E-22
  0.3165000      1.7097188E-22
  0.3170000      1.4691631E-22
  0.3175000      1.1702195E-22
  0.3180000      8.1563907E-23
  0.3185000      4.0986767E-23
  0.3190000     -4.0922550E-24
  0.3195000     -5.2884307E-23
  0.3200000     -1.0443442E-22
  0.3205000     -1.5763174E-22
  0.3210000     -2.1122470E-22
  0.3215000     -2.6384128E-22
  0.3220000     -3.1401412E-22
  0.3225000     -3.6021058E-22
  0.3230000     -4.0086718E-22
  0.3235000     -4.3442845E-22
  0.3240000     -4.5938892E-22
  0.3245000     -4.7433805E-22
  0.3250000     -4.7800710E-22
  0.3255000     -4.6931645E-22
  0.3260000     -4.4742302E-22
  0.3265000     -4.1176545E-22
  0.3270000     -3.6210619E-22
  0.3275000     -2.9856878E-22
  0.3280000     -2.2166885E-22
  0.3285000     -1.3233702E-22
  0.3290000     -3.1932480E-23
  0.3295000      7.7754593E-23
  0.3300000      1.9451248E-22
  0.3305000      3.1573071E-22
  0.3310000      4.3843662E-22
  0.3315000      5.5934626E-22
  0.3320000      6.7492920E-22
  0.3325000      7.8148742E-22
  0.3330000      8.7524615E-22
  0.3335000      9.5245647E-22
  0.3340000      1.0095066E-21
  0.3345000      1.0430397E-21
  0.3350000      1.0500752E-21
  0.3355000      1.0281303E-21
  0.3360000      9.7533722E-22
  0.3365000      8.9055414E-22
  0.3370000      7.7346259E-22
  0.3375000      6.2464990E-22
  0.3380000      4.4567218E-22
  0.3385000      2.3909251E-22
  0.3390000      8.4934989E-24
  0.3395000     -2.4154030E-22
  0.3400000     -5.0547112E-22
  0.3405000     -7.7688961E-22
  0.3410000     -1.0486287E-21
  0.3415000     -1.3129100E-21
  0.3420000     -1.5615192E-21
  0.3425000     -1.7860100E-21
  0.3430000     -1.9779298E-21
  0.3435000     -2.1290647E-21
  0.3440000     -2.2316951E-21
  0.3445000     -2.2788584E-21
  0.3450000     -2.2646089E-21
  0.3455000     -2.1842682E-21
  0.3460000     -2.0346589E-21
  0.3465000     -1.8143124E-21
  0.3470000     -1.5236422E-21
  0.3475000     -1.1650784E-21
  0.3480000     -7.4315524E-22
  0.3485000     -2.6454401E-22
  0.3490000      2.6196920E-22
  0.3495000      8.2556674E-22
  0.3500000      1.4135454E-21
  0.3505000      2.0115245E-21
  0.3510000      2.6037133E-21
  0.3515000      3.1732383E-21
  0.3520000      3.7025198E-21
  0.3525000      4.1736985E-21
  0.3530000      4.5690945E-21
  0.3535000      4.8717000E-21
  0.3540000      5.0656827E-21
  0.3545000      5.1368994E-21
  0.3550000      5.0733972E-21
  0.3555000      4.8658936E-21
  0.3560000      4.5082236E-21
  0.3565000      3.9977324E-21
  0.3570000      3.3356062E-21
  0.3575000      2.5271285E-21
  0.3580000      1.5818446E-21
  0.3585000      5.1363140E-22
  0.3590000     -6.5934433E-22
  0.3595000     -1.9147781E-21
  0.3600000     -3.2264998E-21
  0.3605000     -4.5648624E-21
  0.3610000     -5.8972529E-21
  0.3615000     -7.1887100E-21
  0.3620000     -8.4026485E-21
  0.3625000     -9.5016799E-21
  0.3630000     -1.0448508E-20
  0.3635000     -1.1206882E-20
  0.3640000     -1.1742598E-20
  0.3645000     -1.2024510E-20
  0.3650000     -1.2025536E-20
  0.3655000     -1.1723628E-20
  0.3660000     -1.1102687E-20
  0.3665000     -1.0153374E-20
  0.3670000     -8.8738151E-21
  0.3675000     -7.2701671E-21
  0.3680000     -5.3570062E-21
  0.3685000     -3.1575421E-21
  0.3690000     -7.0362147E-22
  0.3695000      1.9644748E-21
  0.3700000      4.7984687E-21
  0.3705000      7.7427328E-21
  0.3710000      1.0735167E-20
  0.3715000      1.3708279E-20
  0.3720000      1.6590463E-20
  0.3725000      1.9307444E-20
  0.3730000      2.1783876E-20
  0.3735000      2.3945045E-20
  0.3740000      2.5718651E-20
  0.3745000      2.7036621E-20
  0.3750000      2.7836925E-20
  0.3755000      2.8065333E-20
  0.3760000      2.7677095E-20
  0.3765000      2.6638449E-20
  0.3770000      2.4928005E-20
  0.3775000      2.2537867E-20
  0.3780000      1.9474531E-20
  0.3785000      1.5759513E-20
  0.3790000      1.1429651E-20
  0.3795000      6.5371252E-21
  0.3800000      1.1491385E-21
  0.3805000     -4.6527314E-21
  0.3810000     -1.0773488E-20
  0.3815000     -1.7105985E-20
  0.3820000     -2.3532508E-20
  0.3825000     -2.9926590E-20
  0.3830000     -3.6155079E-20
  0.3835000     -4.2080426E-20
  0.3840000     -4.7563115E-20
  0.3845000     -5.2464241E-20
  0.3850000     -5.6648172E-20
  0.3855000     -5.9985238E-20
  0.3860000     -6.2354464E-20
  0.3865000     -6.3646197E-20
  0.3870000     -6.3764710E-20
  0.3875000     -6.2630652E-20
  0.3880000     -6.0183328E-20
  0.3885000     -5.6382802E-20
  0.3890000     -5.1211702E-20
  0.3895000     -4.4676820E-20
  0.3900000     -3.6810345E-20
  0.3905000     -2.7670797E-20
  0.3910000     -1.7343527E-20
  0.3915000     -5.9408802E-21
  0.3920000      6.3980772E-21
  0.3925000      1.9508307E-20
  0.3930000      3.3199970E-20
  0.3935000      4.7260124E-20
  0.3940000      6.1454860E-20
  0.3945000      7.5531956E-20
  0.3950000      8.9223992E-20
  0.3955000      1.0225196E-19
  0.3960000      1.1432932E-19
  0.3965000      1.2516642E-19
  0.3970000      1.3447532E-19
  0.3975000      1.4197499E-19
  0.3980000      1.4739671E-19
  0.3985000      1.5048971E-19
  0.3990000      1.5102680E-19
  0.3995000      1.4881023E-19
  0.4000000      1.4367725E-19
  0.4005000      1.3550565E-19
  0.4010000      1.2421882E-19
  0.4015000      1.0979058E-19
  0.4020000      9.2249398E-20
  0.4025000      7.1681837E-20
  0.4030000      4.8235574E-20
  0.4035000      2.2121128E-20
  0.4040000     -6.3869604E-21
  0.4045000     -3.6950458E-20
  0.4050000     -6.9168520E-20
  0.4055000     -1.0258014E-19
  0.4060000     -1.3666787E-19
  0.4065000     -1.7086275E-19
  0.4070000     -2.0455071E-19
  0.4075000     -2.3708002E-19
  0.4080000     -2.6777023E-19
  0.4085000     -2.9592205E-19
  0.4090000     -3.2082867E-19
  0.4095000     -3.4178777E-19
  0.4100000     -3.5811474E-19
  0.4105000     -3.6915618E-19
  0.4110000     -3.7430453E-19
  0.4115000     -3.7301237E-19
  0.4120000     -3.6480733E-19
  0.4125000     -3.4930661E-19
  0.4130000     -3.2623104E-19
  0.4135000     -2.9541830E-19
  0.4140000     -2.5683547E-19
  0.4145000     -2.1058955E-19
  0.4150000     -1.5693688E-19
  0.4155000     -9.6290273E-20
  0.4160000     -2.9223661E-20
  0.4165000      4.3525821E-20
  0.4170000      1.2105813E-19
  0.4175000      2.0231485E-19
  0.4180000      2.8608605E-19
  0.4185000      3.7102114E-19
  0.4190000      4.5564308E-19
  0.4195000      5.3836662E-19
  0.4200000      6.1751954E-19
  0.4205000      6.9136759E-19
  0.4210000      7.5814267E-19
  0.4215000      8.1607364E-19
  0.4220000      8.6342017E-19
  0.4225000      8.9850788E-19
  0.4230000      9.1976559E-19
  0.4235000      9.2576307E-19
  0.4240000      9.1524888E-19
  0.4245000      8.8718791E-19
  0.4250000      8.4079704E-19
  0.4255000      7.7557876E-19
  0.4260000      6.9135202E-19
  0.4265000      5.8827855E-19
  0.4270000      4.6688509E-19
  0.4275000      3.2807896E-19
  0.4280000      1.7315842E-19
  0.4285000      3.8160810E-21
  0.4290000     -1.7786562E-19
  0.4295000     -3.6942571E-19
  0.4300000     -5.6804530E-19
  0.4305000     -7.7057551E-19
  0.4310000     -9.7357338E-19
  0.4315000     -1.1733466E-18
  0.4320000     -1.3660055E-18
  0.4325000     -1.5475222E-18
  0.4330000     -1.7137956E-18
  0.4335000     -1.8607231E-18
  0.4340000     -1.9842764E-18
  0.4345000     -2.0805813E-18
  0.4350000     -2.1459991E-18
  0.4355000     -2.1772089E-18
  0.4360000     -2.1712912E-18
  0.4365000     -2.1258070E-18
  0.4370000     -2.0388747E-18
  0.4375000     -1.9092418E-18
  0.4380000     -1.7363493E-18
  0.4385000     -1.5203884E-18
  0.4390000     -1.2623454E-18
  0.4395000     -9.6403909E-19
  0.4400000     -6.2814007E-19
  0.4405000     -2.5818083E-19
  0.4410000      1.4145273E-19
  0.4415000      5.6554411E-19
  0.4420000      1.0080854E-18
  0.4425000      1.4623352E-18
  0.4430000      1.9208914E-18
  0.4435000      2.3757837E-18
  0.4440000      2.8185793E-18
  0.4445000      3.2405073E-18
  0.4450000      3.6325955E-18
  0.4455000      3.9858194E-18
  0.4460000      4.2912662E-18
  0.4465000      4.5403022E-18
  0.4470000      4.7247502E-18
  0.4475000      4.8370685E-18
  0.4480000      4.8705304E-18
  0.4485000      4.8194003E-18
  0.4490000      4.6791031E-18
  0.4495000      4.4463824E-18
  0.4500000      4.1194492E-18
  0.4505000      3.6981057E-18
  0.4510000      3.1838521E-18
  0.4515000      2.5799703E-18
  0.4520000      1.8915747E-18
  0.4525000      1.1256397E-18
  0.4530000      2.9098604E-19
  0.4535000     -6.0176128E-19
  0.4540000     -1.5402542E-18
  0.4545000     -2.5105389E-18
  0.4550000     -3.4972109E-18
  0.4555000     -4.4836055E-18
  0.4560000     -5.4520260E-18
  0.4565000     -6.3839996E-18
  0.4570000     -7.2605712E-18
  0.4575000     -8.0626163E-18
  0.4580000     -8.7711817E-18
  0.4585000     -9.3678436E-18
  0.4590000     -9.8350716E-18
  0.4595000     -1.0156607E-17
  0.4600000     -1.0317833E-17
  0.4605000     -1.0306144E-17
  0.4610000     -1.0111290E-17
  0.4615000     -9.7257183E-18
  0.4620000     -9.1448589E-18
  0.4625000     -8.3673959E-18
  0.4630000     -7.3954852E-18
  0.4635000     -6.2349177E-18
  0.4640000     -4.8952367E-18
  0.4645000     -3.3897849E-18
  0.4650000     -1.7356882E-18
  0.4655000      4.6233564E-20
  0.4660000      1.9316237E-18
  0.4665000      3.8928261E-18
  0.4670000      5.8991936E-18
  0.4675000      7.9174742E-18
  0.4680000      9.9122624E-18
  0.4685000      1.1846519E-17
  0.4690000      1.3682160E-17
  0.4695000      1.5380684E-17
  0.4700000      1.6903861E-17
  0.4705000      1.8214443E-17
  0.4710000      1.9276910E-17
  0.4715000      2.0058218E-17
  0.4720000      2.0528550E-17
  0.4725000      2.0662047E-17
  0.4730000      2.0437514E-17
  0.4735000      1.9839070E-17
  0.4740000      1.8856752E-17
  0.4745000      1.7487017E-17
  0.4750000      1.5733175E-17
  0.4755000      1.3605722E-17
  0.4760000      1.1122518E-17
  0.4765000      8.3088845E-18
  0.4770000      5.1975340E-18
  0.4775000      1.8283680E-18
  0.4780000     -1.7518689E-18
  0.4785000     -5.4900879E-18
  0.4790000     -9.3275094E-18
  0.4795000     -1.3200432E-17
  0.4800000     -1.7041170E-17
  0.4805000     -2.0779093E-17
  0.4810000     -2.4341776E-17
  0.4815000     -2.7656266E-17
  0.4820000     -3.0650384E-17
  0.4825000     -3.3254110E-17
  0.4830000     -3.5400998E-17