  0.0000000E+00  0.0000000E+00
  5.0000002E-04  0.0000000E+00
  1.0000000E-03  0.0000000E+00
  1.5000000E-03  0.0000000E+00
  2.0000001E-03  0.0000000E+00
  2.4999999E-03  0.0000000E+00
  3.0000000E-03  0.0000000E+00
  3.5000001E-03  0.0000000E+00
  4.0000002E-03  0.0000000E+00
  4.4999998E-03  0.0000000E+00
  4.9999999E-03  0.0000000E+00
  5.5000000E-03  0.0000000E+00
  6.0000001E-03  0.0000000E+00
  6.5000001E-03  0.0000000E+00
  7.0000002E-03  0.0000000E+00
  7.4999998E-03  0.0000000E+00
  8.0000004E-03  0.0000000E+00
  8.5000005E-03  0.0000000E+00
  8.9999996E-03  0.0000000E+00
  9.4999997E-03  0.0000000E+00
  9.9999998E-03  0.0000000E+00
  1.0500000E-02  0.0000000E+00
  1.1000000E-02  0.0000000E+00
  1.1500000E-02  0.0000000E+00
  1.2000000E-02  0.0000000E+00
  1.2500000E-02  0.0000000E+00
  1.3000000E-02  0.0000000E+00
  1.3500000E-02  0.0000000E+00
  1.4000000E-02  0.0000000E+00
  1.4500000E-02  0.0000000E+00
  1.5000000E-02  0.0000000E+00
  1.5500000E-02  0.0000000E+00
  1.6000001E-02  0.0000000E+00
  1.6500000E-02  0.0000000E+00
  1.7000001E-02  0.0000000E+00
  1.7500000E-02  0.0000000E+00
  1.7999999E-02  0.0000000E+00
  1.8500000E-02  0.0000000E+00
  1.8999999E-02  0.0000000E+00
  1.9500000E-02  0.0000000E+00
  2.0000000E-02  0.0000000E+00
  2.0500001E-02  0.0000000E+00
  2.1000000E-02  0.0000000E+00
  2.1500001E-02  0.0000000E+00
  2.2000000E-02  0.0000000E+00
  2.2500001E-02  0.0000000E+00
  2.3000000E-02  0.0000000E+00
  2.3499999E-02  0.0000000E+00
  2.4000000E-02  0.0000000E+00
  2.4499999E-02  0.0000000E+00
  2.5000000E-02  0.0000000E+00
  2.5500000E-02  0.0000000E+00
  2.6000001E-02  0.0000000E+00
  2.6500000E-02  0.0000000E+00
  2.7000001E-02  0.0000000E+00
  2.7500000E-02  0.0000000E+00
  2.8000001E-02  0.0000000E+00
  2.8500000E-02  0.0000000E+00
  2.8999999E-02  0.0000000E+00
  2.9500000E-02  0.0000000E+00
  2.9999999E-02  0.0000000E+00
  3.0500000E-02  0.0000000E+00
  3.0999999E-02  0.0000000E+00
  3.1500001E-02  0.0000000E+00
  3.2000002E-02  0.0000000E+00
  3.2499999E-02  0.0000000E+00
  3.3000000E-02  0.0000000E+00
  3.3500001E-02  0.0000000E+00
  3.4000002E-02  0.0000000E+00
  3.4499999E-02  0.0000000E+00
  3.5000000E-02  0.0000000E+00
  3.5500001E-02  0.0000000E+00
  3.5999998E-02  0.0000000E+00
  3.6499999E-02  0.0000000E+00
  3.7000000E-02  0.0000000E+00
  3.7500001E-02  0.0000000E+00
  3.7999999E-02  0.0000000E+00
  3.8500000E-02  0.0000000E+00
  3.9000001E-02  0.0000000E+00
  3.9500002E-02  0.0000000E+00
  3.9999999E-02  0.0000000E+00
  4.0500000E-02  0.0000000E+00
  4.1000001E-02  0.0000000E+00
  4.1499998E-02  0.0000000E+00
  4.1999999E-02  0.0000000E+00
  4.2500000E-02  0.0000000E+00
  4.3000001E-02  0.0000000E+00
  4.3499999E-02  0.0000000E+00
  4.4000000E-02  0.0000000E+00
  4.4500001E-02  0.0000000E+00
  4.5000002E-02  0.0000000E+00
  4.5499999E-02  0.0000000E+00
  4.6000000E-02  0.0000000E+00
  4.6500001E-02  0.0000000E+00
  4.6999998E-02  0.0000000E+00
  4.7499999E-02  0.0000000E+00
  4.8000000E-02  0.0000000E+00
  4.8500001E-02  0.0000000E+00
  4.8999999E-02  0.0000000E+00
  4.9500000E-02  0.0000000E+00
  5.0000001E-02  0.0000000E+00
  5.0500002E-02  0.0000000E+00
  5.0999999E-02  0.0000000E+00
  5.1500000E-02  0.0000000E+00
  5.2000001E-02  0.0000000E+00
  5.2499998E-02  0.0000000E+00
  5.2999999E-02  0.0000000E+00
  5.3500000E-02  0.0000000E+00
  5.4000001E-02  0.0000000E+00
  5.4499999E-02  0.0000000E+00
  5.5000000E-02  0.0000000E+00
  5.5500001E-02  0.0000000E+00
  5.6000002E-02  0.0000000E+00
  5.6499999E-02  0.0000000E+00
  5.7000000E-02  0.0000000E+00
  5.7500001E-02 -2.6275187E-37
  5.7999998E-02  1.1966044E-38
  5.8499999E-02  1.2072231E-38
  5.9000000E-02  0.0000000E+00
  5.9500001E-02  0.0000000E+00
  5.9999999E-02  1.8944680E-36
  6.0500000E-02  2.0449697E-36
  6.1000001E-02  4.8568938E-36
  6.1500002E-02  8.9092851E-36
  6.1999999E-02  8.1547001E-36
  6.2500000E-02 -2.7176979E-35
  6.3000001E-02 -3.6509744E-35
  6.3500002E-02 -1.8328546E-34
  6.4000003E-02 -1.6717094E-34
  6.4499997E-02 -2.2358685E-34
  6.4999998E-02 -6.5274237E-35
  6.5499999E-02 -4.6671301E-35
  6.6000000E-02  2.6292654E-34
  6.6500001E-02  1.3895382E-34
  6.7000002E-02  2.0831581E-34
  6.7500003E-02  2.0376191E-34
  6.8000004E-02  1.3222338E-34
  6.8499997E-02  7.4338722E-35
  6.8999998E-02 -3.1151985E-34
  6.9499999E-02  1.9763552E-34
  7.0000000E-02  4.2665471E-35
  7.0500001E-02  3.2756989E-34
  7.1000002E-02  5.3350826E-34
  7.1500003E-02 -1.4826032E-34
  7.1999997E-02  1.4947049E-33
  7.2499998E-02  1.2250447E-33
  7.2999999E-02  8.0458126E-36
  7.3500000E-02  2.6521226E-33
  7.4000001E-02  2.7350321E-33
  7.4500002E-02  4.6322882E-33
  7.5000003E-02  8.3214099E-34
  7.5499997E-02 -1.9822800E-33
  7.5999998E-02 -3.0253698E-33
  7.6499999E-02 -4.0435467E-33
  7.7000000E-02 -3.7291052E-33
  7.7500001E-02 -3.3767512E-33
  7.8000002E-02 -4.8080334E-33
  7.8500003E-02 -7.1212726E-33
  7.9000004E-02 -9.5223006E-33
  7.9499997E-02 -1.1471937E-32
  7.9999998E-02 -8.1912575E-33
  8.0499999E-02  1.1186825E-32
  8.1000000E-02  3.5198359E-32
  8.1500001E-02  5.8933838E-32
  8.2000002E-02  7.4455853E-32
  8.2500003E-02  7.6616400E-32
  8.2999997E-02  5.8852265E-32
  8.3499998E-02  2.6817781E-32
  8.3999999E-02 -2.2290774E-32
  8.4500000E-02 -8.2396353E-32
  8.5000001E-02 -1.4854679E-31
  8.5500002E-02 -2.1269830E-31
  8.6000003E-02 -2.6433558E-31
  8.6499996E-02 -2.9381801E-31
  8.6999997E-02 -2.9356702E-31
  8.7499999E-02 -2.5633509E-31
  8.8000000E-02 -1.8381224E-31
  8.8500001E-02 -7.3105492E-32
  8.9000002E-02  7.3033870E-32
  8.9500003E-02  2.5073873E-31
  9.0000004E-02  4.5200908E-31
  9.0499997E-02  6.6751481E-31
  9.0999998E-02  8.8521900E-31
  9.1499999E-02  1.0888639E-30
  9.2000000E-02  1.2599204E-30
  9.2500001E-02  1.3762047E-30
  9.3000002E-02  1.4129495E-30
  9.3500003E-02  1.3437503E-30
  9.3999997E-02  1.1417792E-30
  9.4499998E-02  7.8196212E-31
  9.4999999E-02  2.4308137E-31
  9.5500000E-02 -4.9000618E-31
  9.6000001E-02 -1.4230251E-30
  9.6500002E-02 -2.5487595E-30
  9.7000003E-02 -3.8436600E-30
  9.7499996E-02 -5.2624776E-30
  9.7999997E-02 -6.7335017E-30
  9.8499998E-02 -8.1547575E-30
  9.8999999E-02 -9.3866899E-30
  9.9500000E-02 -1.0252137E-29
  0.1000000     -1.0535844E-29
  0.1005000     -9.9895428E-30
  0.1010000     -8.3434377E-30
  0.1015000     -5.3261058E-30
  0.1020000     -6.9330920E-31
  0.1025000      5.7338128E-30
  0.1030000      1.4021608E-29
  0.1035000      2.4070561E-29
  0.1040000      3.5559591E-29
  0.1045000      4.7894637E-29
  0.1050000      6.0168357E-29
  0.1055000      7.1141180E-29
  0.1060000      7.9251476E-29
  0.1065000      8.2668779E-29
  0.1070000      7.9391262E-29
  0.1075000      6.7398689E-29
  0.1080000      4.4857292E-29
  0.1085000      1.0372336E-29
  0.1090000     -3.6725254E-29
  0.1095000     -9.6078518E-29
  0.1100000     -1.6601750E-28
  0.1105000     -2.4331946E-28
  0.1110000     -3.2305773E-28
  0.1115000     -3.9857197E-28
  0.1120000     -4.6160361E-28
  0.1125000     -5.0262250E-28
  0.1130000     -5.1135838E-28
  0.1135000     -4.7754699E-28
  0.1140000     -3.9186514E-28
  0.1145000     -2.4701631E-28
  0.1150000     -3.8903493E-29
  0.1155000      2.3219517E-28
  0.1160000      5.6055245E-28
  0.1165000      9.3413602E-28
  0.1170000      1.3340797E-27
  0.1175000      1.7346061E-27
  0.1180000      2.1034951E-27
  0.1185000      2.4031507E-27
  0.1190000      2.5923396E-27
  0.1195000      2.6285473E-27
  0.1200000      2.4709354E-27
  0.1205000      2.0837576E-27
  0.1210000      1.4401221E-27
  0.1215000      5.2582697E-28
  0.1220000     -6.5687967E-28
  0.1225000     -2.0859701E-27
  0.1230000     -3.7169562E-27
  0.1235000     -5.4812012E-27
  0.1240000     -7.2854455E-27
  0.1245000     -9.0128745E-27
  0.1250000     -1.0525858E-26
  0.1255000     -1.1670633E-26
  0.1260000     -1.2283940E-26
  0.1265000     -1.2201635E-26
  0.1270000     -1.1269258E-26
  0.1275000     -9.3542040E-27
  0.1280000     -6.3592158E-27
  0.1285000     -2.2365901E-27
  0.1290000      2.9976533E-27
  0.1295000      9.2505928E-27
  0.1300000      1.6341147E-26
  0.1305000      2.3992459E-26
  0.1310000      3.1828760E-26
  0.1315000      3.9378282E-26
  0.1320000      4.6083766E-26
  0.1325000      5.1320995E-26
  0.1330000      5.4426386E-26
  0.1335000      5.4733536E-26
  0.1340000      5.1617955E-26
  0.1345000      4.4548470E-26
  0.1350000      3.3142860E-26
  0.1355000      1.7224759E-26
  0.1360000     -3.1228301E-27
  0.1365000     -2.7511835E-26
  0.1370000     -5.5216023E-26
  0.1375000     -8.5155692E-26
  0.1380000     -1.1590414E-25
  0.1385000     -1.4571983E-25
  0.1390000     -1.7260550E-25
  0.1395000     -1.9439427E-25
  0.1400000     -2.0886157E-25
  0.1405000     -2.1385642E-25
  0.1410000     -2.0744771E-25
  0.1415000     -1.8807588E-25
  0.1420000     -1.5470070E-25
  0.1425000     -1.0693259E-25
  0.1430000     -4.5141582E-26
  0.1435000      2.9469874E-26
  0.1440000      1.1483595E-25
  0.1445000      2.0804234E-25
  0.1450000      3.0538891E-25
  0.1455000      4.0250025E-25
  0.1460000      4.9447724E-25
  0.1465000      5.7608362E-25
  0.1470000      6.4195647E-25
  0.1475000      6.8683072E-25
  0.1480000      7.0577157E-25
  0.1485000      6.9439688E-25
  0.1490000      6.4909206E-25
  0.1495000      5.6720701E-25
  0.1500000      4.4723513E-25
  0.1505000      2.8897612E-25
  0.1510000      9.3683204E-26
  0.1515000     -1.3580318E-25
  0.1520000     -3.9493732E-25
  0.1525000     -6.7736261E-25
  0.1530000     -9.7483634E-25
  0.1535000     -1.2771868E-24
  0.1540000     -1.5723382E-24
  0.1545000     -1.8464033E-24
  0.1550000     -2.0839096E-24
  0.1555000     -2.2681417E-24
  0.1560000     -2.3816555E-24
  0.1565000     -2.4069799E-24
  0.1570000     -2.3274826E-24
  0.1575000     -2.1284246E-24
  0.1580000     -1.7981372E-24
  0.1585000     -1.3292988E-24
  0.1590000     -7.2021211E-25
  0.1595000      2.3996331E-26
  0.1600000      8.9034904E-25
  0.1605000      1.8572845E-24
  0.1610000      2.8943244E-24
  0.1615000      3.9622263E-24
  0.1620000      5.0136658E-24
  0.1625000      5.9945544E-24
  0.1630000      6.8459258E-24
  0.1635000      7.5063681E-24
  0.1640000      7.9149262E-24
  0.1645000      8.0144016E-24
  0.1650000      7.7547788E-24
  0.1655000      7.0967386E-24
  0.1660000      6.0149820E-24
  0.1665000      4.5012064E-24
  0.1670000      2.5666211E-24
  0.1675000      2.4374121E-25
  0.1680000     -2.4125370E-24
  0.1685000     -5.3247729E-24
  0.1690000     -8.3937001E-24
  0.1695000     -1.1499924E-23
  0.1700000     -1.4506562E-23
  0.1705000     -1.7262905E-23
  0.1710000     -1.9608952E-23
  0.1715000     -2.1381026E-23
  0.1720000     -2.2418157E-23
  0.1725000     -2.2569555E-23
  0.1730000     -2.1702763E-23
  0.1735000     -1.9712646E-23
  0.1740000     -1.6530735E-23
  0.1745000     -1.2134959E-23
  0.1750000     -6.5588736E-24
  0.1755000      9.9851345E-26
  0.1760000      7.6725613E-24
  0.1765000      1.5915286E-23
  0.1770000      2.4507805E-23
  0.1775000      3.3056999E-23
  0.1780000      4.1105775E-23
  0.1785000      4.8147494E-23
  0.1790000      5.3647180E-23
  0.1795000      5.7068596E-23
  0.1800000      5.7907679E-23
  0.1805000      5.5729779E-23
  0.1810000      5.0210160E-23
  0.1815000      4.1174570E-23
  0.1820000      2.8637266E-23
  0.1825000      1.2832668E-23
  0.1830000     -5.7624498E-24
  0.1835000     -2.6419902E-23
  0.1840000     -4.8167588E-23
  0.1845000     -6.9815168E-23
  0.1850000     -8.9999828E-23
  0.1855000     -1.0725172E-22
  0.1860000     -1.2007731E-22
  0.1865000     -1.2705775E-22
  0.1870000     -1.2695675E-22
  0.1875000     -1.1883142E-22
  0.1880000     -1.0213871E-22
  0.1885000     -7.6828975E-23
  0.1890000     -4.3417327E-23
  0.1895000     -3.0255910E-24
  0.1900000      4.2612789E-23
  0.1905000      9.1189336E-23
  0.1910000      1.3990221E-22
  0.1915000      1.8558092E-22
  0.1920000      2.2485181E-22
  0.1925000      2.5433782E-22
  0.1930000      2.7087934E-22
  0.1935000      2.7176778E-22
  0.1940000      2.5497267E-22
  0.1945000      2.1935167E-22
  0.1950000      1.6482182E-22
  0.1955000      9.2482184E-23
  0.1960000      4.6728732E-24
  0.1965000     -9.5036049E-23
  0.1970000     -2.0193606E-22
  0.1975000     -3.1034553E-22
  0.1980000     -4.1385054E-22
  0.1985000     -5.0560981E-22
  0.1990000     -5.7870876E-22
  0.1995000     -6.2654741E-22
  0.2000000     -6.4324359E-22
  0.2005000     -6.2402800E-22
  0.2010000     -5.6560822E-22
  0.2015000     -4.6648624E-22
  0.2020000     -3.2720592E-22
  0.2025000     -1.5051793E-22
  0.2030000      5.8554589E-23
  0.2035000      2.9274696E-22
  0.2040000      5.4270177E-22
  0.2045000      7.9721339E-22
  0.2050000      1.0435828E-21
  0.2055000      1.2680628E-21
  0.2060000      1.4563896E-21
  0.2065000      1.5943817E-21
  0.2070000      1.6685878E-21
  0.2075000      1.6669749E-21
  0.2080000      1.5796199E-21
  0.2085000      1.3993955E-21
  0.2090000      1.1226115E-21
  0.2095000      7.4959684E-22
  0.2100000      2.8516961E-22
  0.2105000     -2.6100759E-22
  0.2110000     -8.7424994E-22
  0.2115000     -1.5348451E-21
  0.2120000     -2.2183005E-21
  0.2125000     -2.8957982E-21
  0.2130000     -3.5349406E-21
  0.2135000     -4.1007317E-21
  0.2140000     -4.5568310E-21
  0.2145000     -4.8670221E-21
  0.2150000     -4.9968737E-21
  0.2155000     -4.9155341E-21
  0.2160000     -4.5975781E-21
  0.2165000     -4.0248226E-21
  0.2170000     -3.1880310E-21
  0.2175000     -2.0883879E-21
  0.2180000     -7.3862609E-22
  0.2185000      8.3620452E-22
  0.2190000      2.5985332E-21
  0.2195000      4.4985406E-21
  0.2200000      6.4750814E-21
  0.2205000      8.4571301E-21
  0.2210000      1.0365807E-20
  0.2215000      1.2116871E-20
  0.2220000      1.3623649E-20
  0.2225000      1.4800109E-20
  0.2230000      1.5564245E-20
  0.2235000      1.5841271E-20
  0.2240000      1.5566806E-20
  0.2245000      1.4689564E-20
  0.2250000      1.3173907E-20
  0.2255000      1.1001568E-20
  0.2260000      8.1730776E-21
  0.2265000      4.7084680E-21
  0.2270000      6.4753247E-22
  0.2275000     -3.9504046E-21
  0.2280000     -9.0072610E-21
  0.2285000     -1.4426935E-20
  0.2290000     -2.0096574E-20
  0.2295000     -2.5887514E-20
  0.2300000     -3.1656612E-20
  0.2305000     -3.7246999E-20
  0.2310000     -4.2489192E-20
  0.2315000     -4.7201963E-20
  0.2320000     -5.1193155E-20
  0.2325000     -5.4261109E-20
  0.2330000     -5.6196169E-20
  0.2335000     -5.6783358E-20
  0.2340000     -5.5805682E-20
  0.2345000     -5.3049070E-20
  0.2350000     -4.8308482E-20
  0.2355000     -4.1396086E-20
  0.2360000     -3.2151124E-20
  0.2365000     -2.0451346E-20
  0.2370000     -6.2263145E-21
  0.2375000      1.0528037E-20
  0.2380000      2.9734636E-20
  0.2385000      5.1219809E-20
  0.2390000      7.4699043E-20
  0.2395000      9.9764477E-20
  0.2400000      1.2587474E-19
  0.2405000      1.5234980E-19
  0.2410000      1.7836994E-19
  0.2415000      2.0298065E-19
  0.2420000      2.2510555E-19
  0.2425000      2.4356589E-19
  0.2430000      2.5710816E-19
  0.2435000      2.6444096E-19
  0.2440000      2.6427790E-19
  0.2445000      2.5538816E-19
  0.2450000      2.3665389E-19
  0.2455000      2.0713023E-19
  0.2460000      1.6610898E-19
  0.2465000      1.1318157E-19
  0.2470000      4.8299826E-20
  0.2475000     -2.8169452E-20
  0.2480000     -1.1539752E-19
  0.2485000     -2.1205672E-19
  0.2490000     -3.1630040E-19
  0.2495000     -4.2575684E-19
  0.2500000     -5.3754115E-19
  0.2505000     -6.4829107E-19
  0.2510000     -7.5421816E-19
  0.2515000     -8.5118591E-19
  0.2520000     -9.3480581E-19
  0.2525000     -1.0005542E-18
  0.2530000     -1.0439084E-18
  0.2535000     -1.0604970E-18
  0.2540000     -1.0462615E-18
  0.2545000     -9.9762852E-19
  0.2550000     -9.1168394E-19
  0.2555000     -7.8634379E-19
  0.2560000     -6.2051910E-19
  0.2565000     -4.1426154E-19
  0.2570000     -1.6890081E-19
  0.2575000      1.1286020E-19
  0.2580000      4.2687157E-19
  0.2585000      7.6750424E-19
  0.2590000      1.1276565E-18
  0.2595000      1.4988189E-18
  0.2600000      1.8711725E-18
  0.2605000      2.2337549E-18
  0.2610000      2.5746644E-18
  0.2615000      2.8813308E-18
  0.2620000      3.1408166E-18
  0.2625000      3.3401712E-18
  0.2630000      3.4668250E-18
  0.2635000      3.5089949E-18
  0.2640000      3.4561287E-18
  0.2645000      3.2993379E-18
  0.2650000      3.0318322E-18
  0.2655000      2.6493183E-18
  0.2660000      2.1503881E-18
  0.2665000      1.5368320E-18
  0.2670000      8.1389103E-19
  0.2675000     -9.5585591E-21
  0.2680000     -9.2092148E-19
  0.2685000     -1.9039090E-18
  0.2690000     -2.9386336E-18
  0.2695000     -4.0018961E-18
  0.2700000     -5.0674888E-18
  0.2705000     -6.1067022E-18
  0.2710000     -7.0888783E-18
  0.2715000     -7.9821233E-18
  0.2720000     -8.7540665E-18
  0.2725000     -9.3726934E-18
  0.2730000     -9.8072800E-18
  0.2735000     -1.0029313E-17
  0.2740000     -1.0013451E-17
  0.2745000     -9.7384792E-18
  0.2750000     -9.1881899E-18
  0.2755000     -8.3522164E-18
  0.2760000     -7.2267999E-18
  0.2765000     -5.8153585E-18
  0.2770000     -4.1289866E-18
  0.2775000     -2.1867359E-18
  0.2780000     -1.5695959E-20
  0.2785000      2.3490796E-18
  0.2790000      4.8649428E-18
  0.2795000      7.4822101E-18
  0.2800000      1.0144919E-17
  0.2805000      1.2791873E-17
  0.2810000      1.5357807E-17
  0.2815000      1.7774821E-17
  0.2820000      1.9973892E-17
  0.2825000      2.1886562E-17
  0.2830000      2.3446640E-17
  0.2835000      2.4591989E-17
  0.2840000      2.5266275E-17
  0.2845000      2.5420607E-17
  0.2850000      2.5015133E-17
  0.2855000      2.4020344E-17
  0.2860000      2.2418279E-17
  0.2865000      2.0203438E-17
  0.2870000      1.7383348E-17
  0.2875000      1.3978894E-17
  0.2880000      1.0024218E-17
  0.2885000      5.5666360E-18
  0.2890000      6.6573264E-19
  0.2895000     -4.6073985E-18
  0.2900000     -1.0171388E-17
  0.2905000     -1.5935851E-17
  0.2910000     -2.1802934E-17
  0.2915000     -2.7668935E-17
  0.2920000     -3.3425955E-17
  0.2925000     -3.8963532E-17
  0.2930000     -4.4170098E-17
  0.2935000     -4.8934639E-17
  0.2940000     -5.3147764E-17
  0.2945000     -5.6703066E-17
  0.2950000     -5.9498069E-17
  0.2955000     -6.1435154E-17
  0.2960000     -6.2422086E-17
  0.2965000     -6.2372800E-17
  0.2970000     -6.1208209E-17
  0.2975000     -5.8856773E-17
  0.2980000     -5.5255437E-17
  0.2985000     -5.0350692E-17
  0.2990000     -4.4100023E-17
  0.2995000     -3.6473990E-17
  0.3000000     -2.7458049E-17
  0.3005000     -1.7055769E-17
  0.3010000     -5.2917267E-18
  0.3015000      7.7843089E-18
  0.3020000      2.2093713E-17
  0.3025000      3.7524407E-17
  0.3030000      5.3926429E-17
  0.3035000      7.1107582E-17
  0.3040000      8.8829702E-17
  0.3045000      1.0680543E-16
  0.3050000      1.2469580E-16
  0.3055000      1.4211042E-16
  0.3060000      1.5860808E-16
  0.3065000      1.7369992E-16
  0.3070000      1.8685510E-16
  0.3075000      1.9750930E-16
  0.3080000      2.0507626E-16
  0.3085000      2.0896070E-16
  0.3090000      2.0857665E-16
  0.3095000      2.0336544E-16
  0.3100000      1.9281881E-16
  0.3105000      1.7650109E-16
  0.3110000      1.5407568E-16
  0.3115000      1.2532780E-16
  0.3120000      9.0190473E-17
  0.3125000      4.8767508E-17
  0.3130000      1.3532188E-18
  0.3135000     -5.1550610E-17
  0.3140000     -1.0922325E-16
  0.3145000     -1.7071790E-16
  0.3150000     -2.3486365E-16
  0.3155000     -3.0027289E-16
  0.3160000     -3.6535752E-16
  0.3165000     -4.2835446E-16
  0.3170000     -4.8735639E-16
  0.3175000     -5.4035715E-16
  0.3180000     -5.8529595E-16
  0.3185000     -6.2011880E-16
  0.3190000     -6.4283564E-16
  0.3195000     -6.5158962E-16
  0.3200000     -6.4472532E-16
  0.3205000     -6.2085551E-16
  0.3210000     -5.7892944E-16
  0.3215000     -5.1830073E-16
  0.3220000     -4.3877739E-16
  0.3225000     -3.4067527E-16
  0.3230000     -2.2485294E-16
  0.3235000     -9.2738554E-17
  0.3240000      5.3663571E-17
  0.3245000      2.1177688E-16
  0.3250000      3.7847862E-16
  0.3255000      5.5014033E-16
  0.3260000      7.2268777E-16
  0.3265000      8.9168302E-16
  0.3270000      1.0524104E-15
  0.3275000      1.1999945E-15
  0.3280000      1.3295175E-15
  0.3285000      1.4361510E-15
  0.3290000      1.5152974E-15
  0.3295000      1.5627313E-15
  0.3300000      1.5747444E-15
  0.3305000      1.5482795E-15
  0.3310000      1.4810651E-15
  0.3315000      1.3717248E-15
  0.3320000      1.2198907E-15
  0.3325000      1.0262705E-15
  0.3330000      7.9271114E-16
  0.3335000      5.2223118E-16
  0.3340000      2.1901510E-16
  0.3345000     -1.1160840E-16
  0.3350000     -4.6323189E-16
  0.3355000     -8.2846000E-16
  0.3360000     -1.1990319E-15
  0.3365000     -1.5659751E-15
  0.3370000     -1.9197896E-15
  0.3375000     -2.2506447E-15
  0.3380000     -2.5486150E-15
  0.3385000     -2.8039200E-15
  0.3390000     -3.0071794E-15
  0.3395000     -3.1496791E-15
  0.3400000     -3.2236227E-15
  0.3405000     -3.2223986E-15
  0.3410000     -3.1408204E-15
  0.3415000     -2.9753466E-15
  0.3420000     -2.7242898E-15
  0.3425000     -2.3879724E-15
  0.3430000     -1.9688711E-15
  0.3435000     -1.4716863E-15
  0.3440000     -9.0339251E-16
  0.3445000     -2.7322024E-16
  0.3450000      4.0740930E-16
  0.3455000      1.1250159E-15
  0.3460000      1.8642395E-15
  0.3465000      2.6080765E-15
  0.3470000      3.3381808E-15
  0.3475000      4.0352082E-15
  0.3480000      4.6792205E-15
  0.3485000      5.2501012E-15
  0.3490000      5.7280544E-15
  0.3495000      6.0940628E-15
  0.3500000      6.3304481E-15
  0.3505000      6.4213428E-15
  0.3510000      6.3532452E-15
  0.3515000      6.1154754E-15
  0.3520000      5.7006918E-15
  0.3525000      5.1052823E-15
  0.3530000      4.3297563E-15
  0.3535000      3.3790622E-15
  0.3540000      2.2628026E-15
  0.3545000      9.9543047E-16
  0.3550000     -4.0372460E-16
  0.3555000     -1.9105034E-15
  0.3560000     -3.4960448E-15
  0.3565000     -5.1270676E-15
  0.3570000     -6.7662483E-15
  0.3575000     -8.3727530E-15
  0.3580000     -9.9028206E-15
  0.3585000     -1.1310573E-14
  0.3590000     -1.2548810E-14
  0.3595000     -1.3570036E-14
  0.3600000     -1.4327496E-14
  0.3605000     -1.4776363E-14
  0.3610000     -1.4874934E-14
  0.3615000     -1.4585970E-14
  0.3620000     -1.3877940E-14
  0.3625000     -1.2726442E-14
  0.3630000     -1.1115436E-14
  0.3635000     -9.0385547E-15
  0.3640000     -6.5002634E-15
  0.3645000     -3.5169581E-15
  0.3650000     -1.1782513E-16
  0.3655000      3.6543678E-15
  0.3660000      7.7428374E-15
  0.3665000      1.2076620E-14
  0.3670000      1.6570628E-14
  0.3675000      2.1126157E-14
  0.3680000      2.5631786E-14
  0.3685000      2.9964597E-14
  0.3690000      3.3991991E-14
  0.3695000      3.7573850E-14
  0.3700000      4.0565218E-14
  0.3705000      4.2819450E-14
  0.3710000      4.4191776E-14
  0.3715000      4.4543179E-14
  0.3720000      4.3744827E-14
  0.3725000      4.1682617E-14
  0.3730000      3.8261983E-14
  0.3735000      3.3412638E-14
  0.3740000      2.7093516E-14
  0.3745000      1.9297452E-14
  0.3750000      1.0055220E-14
  0.3755000     -5.6051945E-16
  0.3760000     -1.2432027E-14
  0.3765000     -2.5394432E-14
  0.3770000     -3.9234346E-14
  0.3775000     -5.3689820E-14
  0.3780000     -6.8451741E-14
  0.3785000     -8.3166404E-14
  0.3790000     -9.7439702E-14
  0.3795000     -1.1084350E-13
  0.3800000     -1.2292257E-13
  0.3805000     -1.3320427E-13
  0.3810000     -1.4120897E-13
  0.3815000     -1.4646227E-13
  0.3820000     -1.4850859E-13
  0.3825000     -1.4692539E-13
  0.3830000     -1.4133807E-13
  0.3835000     -1.3143631E-13
  0.3840000     -1.1698815E-13
  0.3845000     -9.7856768E-14
  0.3850000     -7.4012689E-14
  0.3855000     -4.5547875E-14
  0.3860000     -1.2685445E-14
  0.3865000      2.4211417E-14
  0.3870000      6.4634435E-14
  0.3875000      1.0792850E-13
  0.3880000      1.5329272E-13
  0.3885000      1.9978744E-13
  0.3890000      2.4634347E-13
  0.3895000      2.9177721E-13
  0.3900000      3.3481020E-13
  0.3905000      3.7409260E-13
  0.3910000      4.0823147E-13
  0.3915000      4.3582260E-13
  0.3920000      4.5548607E-13
  0.3925000      4.6590439E-13
  0.3930000      4.6586259E-13
  0.3935000      4.5429012E-13
  0.3940000      4.3030231E-13
  0.3945000      3.9324056E-13
  0.3950000      3.4271110E-13
  0.3955000      2.7862210E-13
  0.3960000      2.0121185E-13
  0.3965000      1.1107570E-13
  0.3970000      9.1832771E-15
  0.3975000     -1.0310992E-13
  0.3980000     -2.2406107E-13
  0.3985000     -3.5154968E-13
  0.3990000     -4.8309452E-13
  0.3995000     -6.1588587E-13
  0.4000000     -7.4682063E-13
  0.4005000     -8.7255875E-13
  0.4010000     -9.8958092E-13
  0.4015000     -1.0942622E-12
  0.4020000     -1.1829502E-12
  0.4025000     -1.2520554E-12
  0.4030000     -1.2981405E-12
  0.4035000     -1.3180211E-12
  0.4040000     -1.3088621E-12
  0.4045000     -1.2682799E-12
  0.4050000     -1.1944351E-12
  0.4055000     -1.0861229E-12
  0.4060000     -9.4285875E-13
  0.4065000     -7.6494507E-13
  0.4070000     -5.5353253E-13
  0.4075000     -3.1066035E-13
  0.4080000     -3.9277734E-14
  0.4085000      2.5674577E-13
  0.4090000      5.7264778E-13
  0.4095000      9.0280902E-13
  0.4100000      1.2408165E-12
  0.4105000      1.5795532E-12
  0.4110000      1.9113168E-12
  0.4115000      2.2279457E-12
  0.4120000      2.5209854E-12
  0.4125000      2.7818470E-12
  0.4130000      3.0020147E-12
  0.4135000      3.1732371E-12
  0.4140000      3.2877444E-12
  0.4145000      3.3384578E-12
  0.4150000      3.3192130E-12
  0.4155000      3.2249607E-12
  0.4160000      3.0519740E-12
  0.4165000      2.7980170E-12
  0.4170000      2.4625202E-12
  0.4175000      2.0466987E-12
  0.4180000      1.5536630E-12
  0.4185000      9.8847330E-13
  0.4190000      3.5817294E-13
  0.4195000     -3.2823860E-13
  0.4200000     -1.0598730E-12
  0.4205000     -1.8240537E-12
  0.4210000     -2.6064908E-12
  0.4215000     -3.3914815E-12
  0.4220000     -4.1621559E-12
  0.4225000     -4.9007881E-12
  0.4230000     -5.5891212E-12
  0.4235000     -6.2087388E-12
  0.4240000     -6.7414472E-12
  0.4245000     -7.1697093E-12
  0.4250000     -7.4770485E-12
  0.4255000     -7.6485094E-12
  0.4260000     -7.6710296E-12
  0.4265000     -7.5339084E-12
  0.4270000     -7.2291314E-12
  0.4275000     -6.7517597E-12
  0.4280000     -6.1001993E-12
  0.4285000     -5.2764750E-12
  0.4290000     -4.2863864E-12
  0.4295000     -3.1396144E-12
  0.4300000     -1.8497877E-12
  0.4305000     -4.3441439E-13
  0.4310000      1.0852682E-12
  0.4315000      2.6844657E-12
  0.4320000      4.3351915E-12
  0.4325000      6.0066197E-12
  0.4330000      7.6656043E-12
  0.4335000      9.2771789E-12
  0.4340000      1.0805236E-11
  0.4345000      1.2213170E-11
  0.4350000      1.3464629E-11
  0.4355000      1.4524272E-11
  0.4360000      1.5358596E-11
  0.4365000      1.5936672E-11
  0.4370000      1.6230991E-11
  0.4375000      1.6218173E-11
  0.4380000      1.5879765E-11
  0.4385000      1.5202790E-11
  0.4390000      1.4180428E-11
  0.4395000      1.2812425E-11
  0.4400000      1.1105505E-11
  0.4405000      9.0736429E-12
  0.4410000      6.7381122E-12
  0.4415000      4.1275889E-12
  0.4420000      1.2778384E-12
  0.4425000     -1.7685119E-12
  0.4430000     -4.9624606E-12
  0.4435000     -8.2493205E-12
  0.4440000     -1.1569476E-11
  0.4445000     -1.4859274E-11
  0.4450000     -1.8052103E-11
  0.4455000     -2.1079624E-11
  0.4460000     -2.3872940E-11
  0.4465000     -2.6363953E-11
  0.4470000     -2.8486843E-11
  0.4475000     -3.0179421E-11
  0.4480000     -3.1384579E-11
  0.4485000     -3.2051622E-11
  0.4490000     -3.2137768E-11
  0.4495000     -3.1609201E-11
  0.4500000     -3.0442399E-11
  0.4505000     -2.8625021E-11
  0.4510000     -2.6156747E-11
  0.4515000     -2.3049937E-11
  0.4520000     -1.9330029E-11
  0.4525000     -1.5035828E-11
  0.4530000     -1.0219161E-11
  0.4535000     -4.9447911E-12
  0.4540000      7.1026193E-13
  0.4545000      6.6576571E-12
  0.4550000      1.2798735E-11
  0.4555000      1.9026079E-11
  0.4560000      2.5225070E-11
  0.4565000      3.1275735E-11
  0.4570000      3.7054842E-11
  0.4575000      4.2438112E-11
  0.4580000      4.7302589E-11
  0.4585000      5.1529024E-11
  0.4590000      5.5004373E-11
  0.4595000      5.7624409E-11
  0.4600000      5.9295978E-11
  0.4605000      5.9939415E-11
  0.4610000      5.9490829E-11
  0.4615000      5.7903973E-11
  0.4620000      5.5152043E-11
  0.4625000      5.1229142E-11
  0.4630000      4.6151281E-11
  0.4635000      3.9957367E-11
  0.4640000      3.2709460E-11
  0.4645000      2.4492467E-11
  0.4650000      1.5414083E-11
  0.4655000      5.6031629E-12
  0.4660000     -4.7911449E-12
  0.4665000     -1.5601583E-11
  0.4670000     -2.6645143E-11
  0.4675000     -3.7725659E-11
  0.4680000     -4.8637122E-11
  0.4685000     -5.9166984E-11
  0.4690000     -6.9100142E-11
  0.4695000     -7.8222602E-11
  0.4700000     -8.6325960E-11
  0.4705000     -9.3211543E-11
  0.4710000     -9.8694199E-11
  0.4715000     -1.0260715E-10
  0.4720000     -1.0480554E-10
  0.4725000     -1.0517033E-10
  0.4730000     -1.0361163E-10
  0.4735000     -1.0007193E-10
  0.4740000     -9.4528350E-11
  0.4745000     -8.6994786E-11
  0.4750000     -7.7523238E-11
  0.4755000     -6.6204410E-11
  0.4760000     -5.3167758E-11
  0.4765000     -3.8580698E-11
  0.4770000     -2.2647035E-11
  0.4775000     -5.6047515E-12
  0.4780000      1.2277206E-11
  0.4785000      3.0702538E-11
  0.4790000      4.9352158E-11
  0.4795000      6.7889548E-11
  0.4800000      8.5965846E-11
  0.4805000      1.0322648E-10
  0.4810000      1.1931733E-10
  0.4815000      1.3389197E-10
  0.4820000      1.4661788E-10
  0.4825000      1.5718415E-10
  0.4830000      1.6530718E-10