  0.0000000E+00  0.0000000E+00
  5.0000002E-04  0.0000000E+00
  1.0000000E-03  0.0000000E+00
  1.5000000E-03  0.0000000E+00
  2.0000001E-03  0.0000000E+00
  2.4999999E-03  0.0000000E+00
  3.0000000E-03  0.0000000E+00
  3.5000001E-03  0.0000000E+00
  4.0000002E-03  0.0000000E+00
  4.4999998E-03  0.0000000E+00
  4.9999999E-03  0.0000000E+00
  5.5000000E-03  0.0000000E+00
  6.0000001E-03  0.0000000E+00
  6.5000001E-03  0.0000000E+00
  7.0000002E-03  0.0000000E+00
  7.4999998E-03  0.0000000E+00
  8.0000004E-03  0.0000000E+00
  8.5000005E-03  0.0000000E+00
  8.9999996E-03  0.0000000E+00
  9.4999997E-03  0.0000000E+00
  9.9999998E-03  0.0000000E+00
  1.0500000E-02  0.0000000E+00
  1.1000000E-02  0.0000000E+00
  1.1500000E-02  0.0000000E+00
  1.2000000E-02  0.0000000E+00
  1.2500000E-02  0.0000000E+00
  1.3000000E-02  0.0000000E+00
  1.3500000E-02  0.0000000E+00
  1.4000000E-02  0.0000000E+00
  1.4500000E-02  0.0000000E+00
  1.5000000E-02  0.0000000E+00
  1.5500000E-02  0.0000000E+00
  1.6000001E-02  0.0000000E+00
  1.6500000E-02  0.0000000E+00
  1.7000001E-02  0.0000000E+00
  1.7500000E-02  0.0000000E+00
  1.7999999E-02  0.0000000E+00
  1.8500000E-02  0.0000000E+00
  1.8999999E-02  0.0000000E+00
  1.9500000E-02  0.0000000E+00
  2.0000000E-02  0.0000000E+00
  2.0500001E-02  0.0000000E+00
  2.1000000E-02  0.0000000E+00
  2.1500001E-02  0.0000000E+00
  2.2000000E-02  0.0000000E+00
  2.2500001E-02  0.0000000E+00
  2.3000000E-02  0.0000000E+00
  2.3499999E-02  0.0000000E+00
  2.4000000E-02  0.0000000E+00
  2.4499999E-02  0.0000000E+00
  2.5000000E-02  0.0000000E+00
  2.5500000E-02  0.0000000E+00
  2.6000001E-02  0.0000000E+00
  2.6500000E-02  0.0000000E+00
  2.7000001E-02  0.0000000E+00
  2.7500000E-02  0.0000000E+00
  2.8000001E-02  0.0000000E+00
  2.8500000E-02  0.0000000E+00
  2.8999999E-02  0.0000000E+00
  2.9500000E-02  0.0000000E+00
  2.9999999E-02  0.0000000E+00
  3.0500000E-02  0.0000000E+00
  3.0999999E-02  0.0000000E+00
  3.1500001E-02  0.0000000E+00
  3.2000002E-02  0.0000000E+00
  3.2499999E-02  0.0000000E+00
  3.3000000E-02  0.0000000E+00
  3.3500001E-02  0.0000000E+00
  3.4000002E-02  0.0000000E+00
  3.4499999E-02  0.0000000E+00
  3.5000000E-02  0.0000000E+00
  3.5500001E-02  0.0000000E+00
  3.5999998E-02  0.0000000E+00
  3.6499999E-02  0.0000000E+00
  3.7000000E-02  0.0000000E+00
  3.7500001E-02  0.0000000E+00
  3.7999999E-02  0.0000000E+00
  3.8500000E-02  0.0000000E+00
  3.9000001E-02  0.0000000E+00
  3.9500002E-02  0.0000000E+00
  3.9999999E-02  0.0000000E+00
  4.0500000E-02  0.0000000E+00
  4.1000001E-02  0.0000000E+00
  4.1499998E-02  0.0000000E+00
  4.1999999E-02  0.0000000E+00
  4.2500000E-02  0.0000000E+00
  4.3000001E-02  0.0000000E+00
  4.3499999E-02  0.0000000E+00
  4.4000000E-02  0.0000000E+00
  4.4500001E-02  0.0000000E+00
  4.5000002E-02  0.0000000E+00
  4.5499999E-02  0.0000000E+00
  4.6000000E-02  0.0000000E+00
  4.6500001E-02  0.0000000E+00
  4.6999998E-02  0.0000000E+00
  4.7499999E-02  0.0000000E+00
  4.8000000E-02  0.0000000E+00
  4.8500001E-02  0.0000000E+00
  4.8999999E-02  0.0000000E+00
  4.9500000E-02  0.0000000E+00
  5.0000001E-02  0.0000000E+00
  5.0500002E-02  0.0000000E+00
  5.0999999E-02  0.0000000E+00
  5.1500000E-02  0.0000000E+00
  5.2000001E-02  0.0000000E+00
  5.2499998E-02  0.0000000E+00
  5.2999999E-02  0.0000000E+00
  5.3500000E-02  0.0000000E+00
  5.4000001E-02  0.0000000E+00
  5.4499999E-02  0.0000000E+00
  5.5000000E-02  0.0000000E+00
  5.5500001E-02  0.0000000E+00
  5.6000002E-02  0.0000000E+00
  5.6499999E-02  0.0000000E+00
  5.7000000E-02  0.0000000E+00
  5.7500001E-02  0.0000000E+00
  5.7999998E-02  0.0000000E+00
  5.8499999E-02  0.0000000E+00
  5.9000000E-02  0.0000000E+00
  5.9500001E-02  0.0000000E+00
  5.9999999E-02  0.0000000E+00
  6.0500000E-02  0.0000000E+00
  6.1000001E-02  0.0000000E+00
  6.1500002E-02  0.0000000E+00
  6.1999999E-02  0.0000000E+00
  6.2500000E-02  0.0000000E+00
  6.3000001E-02  0.0000000E+00
  6.3500002E-02  0.0000000E+00
  6.4000003E-02  0.0000000E+00
  6.4499997E-02  0.0000000E+00
  6.4999998E-02  0.0000000E+00
  6.5499999E-02  0.0000000E+00
  6.6000000E-02  0.0000000E+00
  6.6500001E-02  0.0000000E+00
  6.7000002E-02  0.0000000E+00
  6.7500003E-02  0.0000000E+00
  6.8000004E-02  0.0000000E+00
  6.8499997E-02  0.0000000E+00
  6.8999998E-02  0.0000000E+00
  6.9499999E-02  0.0000000E+00
  7.0000000E-02  0.0000000E+00
  7.0500001E-02  0.0000000E+00
  7.1000002E-02  0.0000000E+00
  7.1500003E-02  0.0000000E+00
  7.1999997E-02  0.0000000E+00
  7.2499998E-02  0.0000000E+00
  7.2999999E-02  0.0000000E+00
  7.3500000E-02  0.0000000E+00
  7.4000001E-02  0.0000000E+00
  7.4500002E-02  0.0000000E+00
  7.5000003E-02  0.0000000E+00
  7.5499997E-02  0.0000000E+00
  7.5999998E-02  0.0000000E+00
  7.6499999E-02  0.0000000E+00
  7.7000000E-02  0.0000000E+00
  7.7500001E-02  0.0000000E+00
  7.8000002E-02  0.0000000E+00
  7.8500003E-02  0.0000000E+00
  7.9000004E-02  0.0000000E+00
  7.9499997E-02  0.0000000E+00
  7.9999998E-02  0.0000000E+00
  8.0499999E-02  0.0000000E+00
  8.1000000E-02  0.0000000E+00
  8.1500001E-02  0.0000000E+00
  8.2000002E-02  0.0000000E+00
  8.2500003E-02  0.0000000E+00
  8.2999997E-02  0.0000000E+00
  8.3499998E-02  0.0000000E+00
  8.3999999E-02  0.0000000E+00
  8.4500000E-02  0.0000000E+00
  8.5000001E-02  0.0000000E+00
  8.5500002E-02  0.0000000E+00
  8.6000003E-02  0.0000000E+00
  8.6499996E-02  0.0000000E+00
  8.6999997E-02  0.0000000E+00
  8.7499999E-02  0.0000000E+00
  8.8000000E-02  0.0000000E+00
  8.8500001E-02  0.0000000E+00
  8.9000002E-02  0.0000000E+00
  8.9500003E-02  0.0000000E+00
  9.0000004E-02  0.0000000E+00
  9.0499997E-02  0.0000000E+00
  9.0999998E-02  0.0000000E+00
  9.1499999E-02  0.0000000E+00
  9.2000000E-02  0.0000000E+00
  9.2500001E-02  0.0000000E+00
  9.3000002E-02  0.0000000E+00
  9.3500003E-02  0.0000000E+00
  9.3999997E-02  0.0000000E+00
  9.4499998E-02  0.0000000E+00
  9.4999999E-02  0.0000000E+00
  9.5500000E-02  0.0000000E+00
  9.6000001E-02  0.0000000E+00
  9.6500002E-02  0.0000000E+00
  9.7000003E-02  0.0000000E+00
  9.7499996E-02  0.0000000E+00
  9.7999997E-02  0.0000000E+00
  9.8499998E-02  0.0000000E+00
  9.8999999E-02  0.0000000E+00
  9.9500000E-02  0.0000000E+00
  0.1000000      0.0000000E+00
  0.1005000      0.0000000E+00
  0.1010000      0.0000000E+00
  0.1015000      0.0000000E+00
  0.1020000      0.0000000E+00
  0.1025000      0.0000000E+00
  0.1030000      0.0000000E+00
  0.1035000      0.0000000E+00
  0.1040000      0.0000000E+00
  0.1045000      0.0000000E+00
  0.1050000      0.0000000E+00
  0.1055000      0.0000000E+00
  0.1060000      0.0000000E+00
  0.1065000      0.0000000E+00
  0.1070000      0.0000000E+00
  0.1075000      0.0000000E+00
  0.1080000      0.0000000E+00
  0.1085000      0.0000000E+00
  0.1090000      0.0000000E+00
  0.1095000      0.0000000E+00
  0.1100000      0.0000000E+00
  0.1105000      0.0000000E+00
  0.1110000      0.0000000E+00
  0.1115000      0.0000000E+00
  0.1120000      0.0000000E+00
  0.1125000      0.0000000E+00
  0.1130000      0.0000000E+00
  0.1135000      0.0000000E+00
  0.1140000      0.0000000E+00
  0.1145000      0.0000000E+00
  0.1150000      0.0000000E+00
  0.1155000      0.0000000E+00
  0.1160000      0.0000000E+00
  0.1165000      0.0000000E+00
  0.1170000      0.0000000E+00
  0.1175000      0.0000000E+00
  0.1180000      0.0000000E+00
  0.1185000      0.0000000E+00
  0.1190000      0.0000000E+00
  0.1195000      0.0000000E+00
  0.1200000      0.0000000E+00
  0.1205000      0.0000000E+00
  0.1210000      0.0000000E+00
  0.1215000      0.0000000E+00
  0.1220000      0.0000000E+00
  0.1225000      0.0000000E+00
  0.1230000      0.0000000E+00
  0.1235000      0.0000000E+00
  0.1240000      0.0000000E+00
  0.1245000      0.0000000E+00
  0.1250000      0.0000000E+00
  0.1255000      0.0000000E+00
  0.1260000      0.0000000E+00
  0.1265000      0.0000000E+00
  0.1270000      0.0000000E+00
  0.1275000      0.0000000E+00
  0.1280000      0.0000000E+00
  0.1285000      0.0000000E+00
  0.1290000      0.0000000E+00
  0.1295000      0.0000000E+00
  0.1300000      0.0000000E+00
  0.1305000      0.0000000E+00
  0.1310000      0.0000000E+00
  0.1315000      0.0000000E+00
  0.1320000      0.0000000E+00
  0.1325000      0.0000000E+00
  0.1330000      0.0000000E+00
  0.1335000      0.0000000E+00
  0.1340000      0.0000000E+00
  0.1345000      0.0000000E+00
  0.1350000      0.0000000E+00
  0.1355000      0.0000000E+00
  0.1360000      0.0000000E+00
  0.1365000      0.0000000E+00
  0.1370000      0.0000000E+00
  0.1375000      0.0000000E+00
  0.1380000      0.0000000E+00
  0.1385000      0.0000000E+00
  0.1390000      0.0000000E+00
  0.1395000      0.0000000E+00
  0.1400000      0.0000000E+00
  0.1405000      0.0000000E+00
  0.1410000      0.0000000E+00
  0.1415000      0.0000000E+00
  0.1420000      0.0000000E+00
  0.1425000      0.0000000E+00
  0.1430000      0.0000000E+00
  0.1435000      0.0000000E+00
  0.1440000      0.0000000E+00
  0.1445000      0.0000000E+00
  0.1450000      0.0000000E+00
  0.1455000      0.0000000E+00
  0.1460000      0.0000000E+00
  0.1465000      0.0000000E+00
  0.1470000      0.0000000E+00
  0.1475000      0.0000000E+00
  0.1480000      0.0000000E+00
  0.1485000      0.0000000E+00
  0.1490000      0.0000000E+00
  0.1495000      0.0000000E+00
  0.1500000      0.0000000E+00
  0.1505000      0.0000000E+00
  0.1510000      0.0000000E+00
  0.1515000      0.0000000E+00
  0.1520000      0.0000000E+00
  0.1525000      0.0000000E+00
  0.1530000      0.0000000E+00
  0.1535000      0.0000000E+00
  0.1540000      0.0000000E+00
  0.1545000      0.0000000E+00
  0.1550000      0.0000000E+00
  0.1555000      0.0000000E+00
  0.1560000      0.0000000E+00
  0.1565000      0.0000000E+00
  0.1570000      0.0000000E+00
  0.1575000      0.0000000E+00
  0.1580000      0.0000000E+00
  0.1585000      0.0000000E+00
  0.1590000      0.0000000E+00
  0.1595000      0.0000000E+00
  0.1600000      0.0000000E+00
  0.1605000      0.0000000E+00
  0.1610000      0.0000000E+00
  0.1615000      0.0000000E+00
  0.1620000      0.0000000E+00
  0.1625000      0.0000000E+00
  0.1630000      0.0000000E+00
  0.1635000      0.0000000E+00
  0.1640000      0.0000000E+00
  0.1645000      0.0000000E+00
  0.1650000      0.0000000E+00
  0.1655000      0.0000000E+00
  0.1660000      0.0000000E+00
  0.1665000      0.0000000E+00
  0.1670000      0.0000000E+00
  0.1675000      0.0000000E+00
  0.1680000      0.0000000E+00
  0.1685000      0.0000000E+00
  0.1690000      0.0000000E+00
  0.1695000      0.0000000E+00
  0.1700000      0.0000000E+00
  0.1705000      0.0000000E+00
  0.1710000      0.0000000E+00
  0.1715000      0.0000000E+00
  0.1720000      0.0000000E+00
  0.1725000      0.0000000E+00
  0.1730000      0.0000000E+00
  0.1735000      0.0000000E+00
  0.1740000      0.0000000E+00
  0.1745000      0.0000000E+00
  0.1750000      0.0000000E+00
  0.1755000      0.0000000E+00
  0.1760000      0.0000000E+00
  0.1765000      0.0000000E+00
  0.1770000      0.0000000E+00
  0.1775000      0.0000000E+00
  0.1780000      0.0000000E+00
  0.1785000      0.0000000E+00
  0.1790000      0.0000000E+00
  0.1795000      0.0000000E+00
  0.1800000      0.0000000E+00
  0.1805000      0.0000000E+00
  0.1810000      0.0000000E+00
  0.1815000      0.0000000E+00
  0.1820000      0.0000000E+00
  0.1825000      0.0000000E+00
  0.1830000      0.0000000E+00
  0.1835000      0.0000000E+00
  0.1840000      0.0000000E+00
  0.1845000      0.0000000E+00
  0.1850000      0.0000000E+00
  0.1855000      0.0000000E+00
  0.1860000      0.0000000E+00
  0.1865000      0.0000000E+00
  0.1870000      0.0000000E+00
  0.1875000      0.0000000E+00
  0.1880000      0.0000000E+00
  0.1885000      0.0000000E+00
  0.1890000      0.0000000E+00
  0.1895000      0.0000000E+00
  0.1900000      0.0000000E+00
  0.1905000      0.0000000E+00
  0.1910000      0.0000000E+00
  0.1915000      0.0000000E+00
  0.1920000      0.0000000E+00
  0.1925000      0.0000000E+00
  0.1930000      0.0000000E+00
  0.1935000      0.0000000E+00
  0.1940000      0.0000000E+00
  0.1945000      0.0000000E+00
  0.1950000      0.0000000E+00
  0.1955000      0.0000000E+00
  0.1960000      0.0000000E+00
  0.1965000      0.0000000E+00
  0.1970000      0.0000000E+00
  0.1975000      0.0000000E+00
  0.1980000      0.0000000E+00
  0.1985000      0.0000000E+00
  0.1990000      0.0000000E+00
  0.1995000      0.0000000E+00
  0.2000000      0.0000000E+00
  0.2005000      0.0000000E+00
  0.2010000      0.0000000E+00
  0.2015000      0.0000000E+00
  0.2020000      0.0000000E+00
  0.2025000      0.0000000E+00
  0.2030000      0.0000000E+00
  0.2035000      0.0000000E+00
  0.2040000      0.0000000E+00
  0.2045000      0.0000000E+00
  0.2050000      0.0000000E+00
  0.2055000      0.0000000E+00
  0.2060000      0.0000000E+00
  0.2065000      0.0000000E+00
  0.2070000      0.0000000E+00
  0.2075000      0.0000000E+00
  0.2080000      0.0000000E+00
  0.2085000      0.0000000E+00
  0.2090000      0.0000000E+00
  0.2095000      0.0000000E+00
  0.2100000      0.0000000E+00
  0.2105000      0.0000000E+00
  0.2110000      0.0000000E+00
  0.2115000      0.0000000E+00
  0.2120000      0.0000000E+00
  0.2125000      0.0000000E+00
  0.2130000      0.0000000E+00
  0.2135000      0.0000000E+00
  0.2140000      0.0000000E+00
  0.2145000      0.0000000E+00
  0.2150000      0.0000000E+00
  0.2155000      0.0000000E+00
  0.2160000      0.0000000E+00
  0.2165000      0.0000000E+00
  0.2170000      0.0000000E+00
  0.2175000      0.0000000E+00
  0.2180000      0.0000000E+00
  0.2185000      0.0000000E+00
  0.2190000      0.0000000E+00
  0.2195000      0.0000000E+00
  0.2200000      0.0000000E+00
  0.2205000      0.0000000E+00
  0.2210000      0.0000000E+00
  0.2215000      0.0000000E+00
  0.2220000      0.0000000E+00
  0.2225000      0.0000000E+00
  0.2230000      0.0000000E+00
  0.2235000      0.0000000E+00
  0.2240000      0.0000000E+00
  0.2245000      0.0000000E+00
  0.2250000      0.0000000E+00
  0.2255000      0.0000000E+00
  0.2260000      0.0000000E+00
  0.2265000      0.0000000E+00
  0.2270000      0.0000000E+00
  0.2275000      0.0000000E+00
  0.2280000      0.0000000E+00
  0.2285000      0.0000000E+00
  0.2290000      0.0000000E+00
  0.2295000      0.0000000E+00
  0.2300000      0.0000000E+00
  0.2305000      0.0000000E+00
  0.2310000      0.0000000E+00
  0.2315000      0.0000000E+00
  0.2320000      0.0000000E+00
  0.2325000      0.0000000E+00
  0.2330000      0.0000000E+00
  0.2335000      0.0000000E+00
  0.2340000      0.0000000E+00
  0.2345000      0.0000000E+00
  0.2350000      0.0000000E+00
  0.2355000      0.0000000E+00
  0.2360000      0.0000000E+00
  0.2365000      0.0000000E+00
  0.2370000      0.0000000E+00
  0.2375000      0.0000000E+00
  0.2380000      0.0000000E+00
  0.2385000      0.0000000E+00
  0.2390000      0.0000000E+00
  0.2395000      0.0000000E+00
  0.2400000      0.0000000E+00
  0.2405000      0.0000000E+00
  0.2410000      0.0000000E+00
  0.2415000      0.0000000E+00
  0.2420000      0.0000000E+00
  0.2425000      0.0000000E+00
  0.2430000      0.0000000E+00
  0.2435000      0.0000000E+00
  0.2440000      0.0000000E+00
  0.2445000      0.0000000E+00
  0.2450000      0.0000000E+00
  0.2455000      0.0000000E+00
  0.2460000      0.0000000E+00
  0.2465000      0.0000000E+00
  0.2470000      0.0000000E+00
  0.2475000      0.0000000E+00
  0.2480000      0.0000000E+00
  0.2485000      0.0000000E+00
  0.2490000      0.0000000E+00
  0.2495000      0.0000000E+00
  0.2500000      0.0000000E+00
  0.2505000      0.0000000E+00
  0.2510000      0.0000000E+00
  0.2515000      0.0000000E+00
  0.2520000      0.0000000E+00
  0.2525000      0.0000000E+00
  0.2530000      0.0000000E+00
  0.2535000      0.0000000E+00
  0.2540000      0.0000000E+00
  0.2545000      0.0000000E+00
  0.2550000      0.0000000E+00
  0.2555000      0.0000000E+00
  0.2560000      0.0000000E+00
  0.2565000      0.0000000E+00
  0.2570000      0.0000000E+00
  0.2575000      0.0000000E+00
  0.2580000      0.0000000E+00
  0.2585000      0.0000000E+00
  0.2590000      0.0000000E+00
  0.2595000      0.0000000E+00
  0.2600000      0.0000000E+00
  0.2605000      0.0000000E+00
  0.2610000      0.0000000E+00
  0.2615000      0.0000000E+00
  0.2620000      0.0000000E+00
  0.2625000      0.0000000E+00
  0.2630000      0.0000000E+00
  0.2635000      0.0000000E+00
  0.2640000      0.0000000E+00
  0.2645000      0.0000000E+00
  0.2650000      0.0000000E+00
  0.2655000      0.0000000E+00
  0.2660000      0.0000000E+00
  0.2665000      0.0000000E+00
  0.2670000      0.0000000E+00
  0.2675000      0.0000000E+00
  0.2680000      0.0000000E+00
  0.2685000      0.0000000E+00
  0.2690000      0.0000000E+00
  0.2695000      0.0000000E+00
  0.2700000      0.0000000E+00
  0.2705000      0.0000000E+00
  0.2710000      0.0000000E+00
  0.2715000      0.0000000E+00
  0.2720000      0.0000000E+00
  0.2725000      0.0000000E+00
  0.2730000      0.0000000E+00
  0.2735000      0.0000000E+00
  0.2740000      0.0000000E+00
  0.2745000      0.0000000E+00
  0.2750000      0.0000000E+00
  0.2755000      0.0000000E+00
  0.2760000      1.9903218E-38
  0.2765000      3.0130661E-38
  0.2770000      3.5530346E-38
  0.2775000      3.1777318E-38
  0.2780000      1.7222918E-38
  0.2785000      0.0000000E+00
  0.2790000     -3.1683128E-38
  0.2795000     -5.8663695E-38
  0.2800000     -8.1502540E-38
  0.2805000     -8.8142951E-38
  0.2810000     -8.1535992E-38
  0.2815000     -6.7641019E-38
  0.2820000     -5.6425693E-38
  0.2825000     -4.9910423E-38
  0.2830000     -2.0899345E-38
  0.2835000      2.9119313E-38
  0.2840000      7.6796783E-38
  0.2845000      9.4746890E-38
  0.2850000      7.6210626E-38
  0.2855000      0.0000000E+00
  0.2860000     -1.6303530E-37
  0.2865000     -3.8309554E-37
  0.2870000     -6.0669201E-37
  0.2875000     -7.6102345E-37
  0.2880000     -8.6141776E-37
  0.2885000     -7.9037718E-37
  0.2890000     -5.2746009E-37
  0.2895000     -2.3320304E-37
  0.2900000      7.1855245E-38
  0.2905000      3.3802720E-37
  0.2910000      4.6445147E-37
  0.2915000      5.8983720E-37
  0.2920000      5.2153311E-37
  0.2925000      2.4186873E-37
  0.2930000     -1.4840937E-37
  0.2935000     -7.6016025E-37
  0.2940000     -1.3722829E-36
  0.2945000     -1.8470525E-36
  0.2950000     -2.2602158E-36
  0.2955000     -2.8632803E-36
  0.2960000     -3.4152864E-36
  0.2965000     -4.0208830E-36
  0.2970000     -4.7701118E-36
  0.2975000     -5.1836765E-36
  0.2980000     -5.1403423E-36
  0.2985000     -4.2848771E-36
  0.2990000     -2.4920251E-36
  0.2995000     -4.1089187E-37
  0.3000000      2.2845321E-36
  0.3005000      5.2948541E-36
  0.3010000      8.0587097E-36
  0.3015000      1.0821070E-35
  0.3020000      1.2921197E-35
  0.3025000      1.4067871E-35
  0.3030000      1.4399593E-35
  0.3035000      1.3889040E-35
  0.3040000      1.2711633E-35
  0.3045000      1.0765309E-35
  0.3050000      8.2515829E-36
  0.3055000      5.4537550E-36
  0.3060000      2.2753862E-36
  0.3065000     -1.3342284E-36
  0.3070000     -5.4075097E-36
  0.3075000     -9.8631545E-36
  0.3080000     -1.4575656E-35
  0.3085000     -1.9211185E-35
  0.3090000     -2.4331290E-35
  0.3095000     -3.0653865E-35
  0.3100000     -3.8363090E-35
  0.3105000     -4.7554948E-35
  0.3110000     -5.7325542E-35
  0.3115000     -6.6031524E-35
  0.3120000     -7.2345031E-35
  0.3125000     -7.5362056E-35
  0.3130000     -7.4357531E-35
  0.3135000     -6.8687556E-35
  0.3140000     -5.8132007E-35
  0.3145000     -4.2016516E-35
  0.3150000     -1.9838700E-35
  0.3155000      7.8431381E-36
  0.3160000      4.0715101E-35
  0.3165000      7.8029573E-35
  0.3170000      1.1833751E-34
  0.3175000      1.6012737E-34
  0.3180000      2.0170342E-34
  0.3185000      2.4120391E-34
  0.3190000      2.7671511E-34
  0.3195000      3.0650067E-34
  0.3200000      3.2891420E-34
  0.3205000      3.4175487E-34
  0.3210000      3.4409036E-34
  0.3215000      3.3565348E-34
  0.3220000      3.1539854E-34
  0.3225000      2.8276051E-34
  0.3230000      2.3744570E-34
  0.3235000      1.7933128E-34
  0.3240000      1.0854584E-34
  0.3245000      2.5542669E-35
  0.3250000     -6.8917954E-35
  0.3255000     -1.7378668E-34
  0.3260000     -2.8768029E-34
  0.3265000     -4.0880989E-34
  0.3270000     -5.3499255E-34
  0.3275000     -6.6361000E-34
  0.3280000     -7.9158267E-34
  0.3285000     -9.1528646E-34
  0.3290000     -1.0305958E-33
  0.3295000     -1.1328384E-33
  0.3300000     -1.2168515E-33
  0.3305000     -1.2770356E-33
  0.3310000     -1.3074035E-33
  0.3315000     -1.3019117E-33
  0.3320000     -1.2545049E-33
  0.3325000     -1.1595141E-33
  0.3330000     -1.0120862E-33
  0.3335000     -8.0838049E-34
  0.3340000     -5.4591009E-34
  0.3345000     -2.2384257E-34
  0.3350000      1.5666589E-34
  0.3355000      5.9222664E-34
  0.3360000      1.0769764E-33
  0.3365000      1.6023882E-33
  0.3370000      2.1571719E-33
  0.3375000      2.7271972E-33
  0.3380000      3.2955414E-33
  0.3385000      3.8426767E-33
  0.3390000      4.3467518E-33
  0.3395000      4.7840556E-33
  0.3400000      5.1296186E-33
  0.3405000      5.3579712E-33
  0.3410000      5.4439788E-33
  0.3415000      5.3637561E-33
  0.3420000      5.0956633E-33
  0.3425000      4.6213253E-33
  0.3430000      3.9266463E-33
  0.3435000      3.0027526E-33
  0.3440000      1.8469444E-33
  0.3445000      4.6356405E-34
  0.3450000     -1.1351557E-33
  0.3455000     -2.9285890E-33
  0.3460000     -4.8872103E-33
  0.3465000     -6.9721163E-33
  0.3470000     -9.1350010E-33
  0.3475000     -1.1318384E-32
  0.3480000     -1.3456185E-32
  0.3485000     -1.5474593E-32
  0.3490000     -1.7293319E-32
  0.3495000     -1.8827266E-32
  0.3500000     -1.9988542E-32
  0.3505000     -2.0688821E-32
  0.3510000     -2.0842007E-32
  0.3515000     -2.0367166E-32
  0.3520000     -1.9191682E-32
  0.3525000     -1.7254563E-32
  0.3530000     -1.4509882E-32
  0.3535000     -1.0930232E-32
  0.3540000     -6.5100574E-33
  0.3545000     -1.2689088E-33
  0.3550000      4.7456382E-33
  0.3555000      1.1455561E-32
  0.3560000      1.8750595E-32
  0.3565000      2.6487141E-32
  0.3570000      3.4488102E-32
  0.3575000      4.2543777E-32
  0.3580000      5.0413885E-32
  0.3585000      5.7830854E-32
  0.3590000      6.4504424E-32
  0.3595000      7.0127524E-32
  0.3600000      7.4383549E-32
  0.3605000      7.6954831E-32
  0.3610000      7.7532316E-32
  0.3615000      7.5826333E-32
  0.3620000      7.1578161E-32
  0.3625000      6.4572232E-32
  0.3630000      5.4648603E-32
  0.3635000      4.1715441E-32
  0.3640000      2.5760979E-32
  0.3645000      6.8646306E-33
  0.3650000     -1.4793297E-32
  0.3655000     -3.8923771E-32
  0.3660000     -6.5123568E-32
  0.3665000     -9.2872553E-32
  0.3670000     -1.2153430E-31
  0.3675000     -1.5036041E-31
  0.3680000     -1.7849876E-31
  0.3685000     -2.0500605E-31
  0.3690000     -2.2886480E-31
  0.3695000     -2.4900490E-31
  0.3700000     -2.6432939E-31
  0.3705000     -2.7374461E-31
  0.3710000     -2.7619415E-31
  0.3715000     -2.7069580E-31
  0.3720000     -2.5638138E-31
  0.3725000     -2.3253773E-31
  0.3730000     -1.9864853E-31
  0.3735000     -1.5443538E-31
  0.3740000     -9.9896543E-32
  0.3745000     -3.5342440E-32
  0.3750000      3.8573976E-32
  0.3755000      1.2083351E-31
  0.3760000      2.1003533E-31
  0.3765000      3.0439104E-31
  0.3770000      4.0173008E-31
  0.3775000      4.9951748E-31
  0.3780000      5.9488492E-31
  0.3785000      6.8467609E-31
  0.3790000      7.6550651E-31
  0.3795000      8.3383795E-31
  0.3800000      8.8606676E-31
  0.3805000      9.1862570E-31
  0.3810000      9.2809642E-31
  0.3815000      9.1133228E-31
  0.3820000      8.6558768E-31
  0.3825000      7.8865096E-31
  0.3830000      6.7897724E-31
  0.3835000      5.3581746E-31
  0.3840000      3.5933837E-31
  0.3845000      1.5072950E-31
  0.3850000     -8.7708518E-32
  0.3855000     -3.5249869E-31
  0.3860000     -6.3895100E-31
  0.3865000     -9.4115786E-31
  0.3870000     -1.2520269E-30
  0.3875000     -1.5633545E-30
  0.3880000     -1.8659414E-30
  0.3885000     -2.1497531E-30
  0.3890000     -2.4041261E-30
  0.3895000     -2.6180166E-30
  0.3900000     -2.7802911E-30
  0.3905000     -2.8800541E-30
  0.3910000     -2.9070069E-30
  0.3915000     -2.8518317E-30
  0.3920000     -2.7065883E-30
  0.3925000     -2.4651181E-30
  0.3930000     -2.1234369E-30
  0.3935000     -1.6801108E-30
  0.3940000     -1.1365940E-30
  0.3945000     -4.9751947E-31
  0.3950000      2.2907583E-31
  0.3955000      1.0316039E-30
  0.3960000      1.8948696E-30
  0.3965000      2.8001221E-30
  0.3970000      3.7252176E-30
  0.3975000      4.6449067E-30
  0.3980000      5.5312520E-30
  0.3985000      6.3541710E-30
  0.3990000      7.0821108E-30
  0.3995000      7.6828407E-30
  0.4000000      8.1243587E-30
  0.4005000      8.3758881E-30
  0.4010000      8.4089532E-30
  0.4015000      8.1985010E-30
  0.4020000      7.7240421E-30
  0.4025000      6.9707823E-30
  0.4030000      5.9307023E-30
  0.4035000      4.6035458E-30
  0.4040000      2.9976842E-30
  0.4045000      1.1308089E-30
  0.4050000     -9.6958827E-31
  0.4055000     -3.2659830E-30
  0.4060000     -5.7108668E-30
  0.4065000     -8.2471066E-30
  0.4070000     -1.0808642E-29
  0.4075000     -1.3321531E-29
  0.4080000     -1.5705357E-29
  0.4085000     -1.7874968E-29
  0.4090000     -1.9742571E-29
  0.4095000     -2.1220122E-29
  0.4100000     -2.2221982E-29
  0.4105000     -2.2667780E-29
  0.4110000     -2.2485432E-29
  0.4115000     -2.1614223E-29
  0.4120000     -2.0007860E-29
  0.4125000     -1.7637427E-29
  0.4130000     -1.4494108E-29
  0.4135000     -1.0591583E-29
  0.4140000     -5.9680089E-30
  0.4145000     -6.8743215E-31
  0.4150000      5.1594192E-30
  0.4155000      1.1455084E-29
  0.4160000      1.8056124E-29
  0.4165000      2.4794752E-29
  0.4170000      3.1481380E-29
  0.4175000      3.7908088E-29
  0.4180000      4.3853037E-29
  0.4185000      4.9085731E-29
  0.4190000      5.3373134E-29
  0.4195000      5.6486466E-29
  0.4200000      5.8208621E-29
  0.4205000      5.8341949E-29
  0.4210000      5.6716296E-29
  0.4215000      5.3197050E-29
  0.4220000      4.7692944E-29
  0.4225000      4.0163319E-29
  0.4230000      3.0624672E-29
  0.4235000      1.9156125E-29
  0.4240000      5.9035704E-30
  0.4245000     -8.9177455E-30
  0.4250000     -2.5022464E-29
  0.4255000     -4.2056376E-29
  0.4260000     -5.9599894E-29
  0.4265000     -7.7173824E-29
  0.4270000     -9.4247506E-29
  0.4275000     -1.1024934E-28
  0.4280000     -1.2457963E-28
  0.4285000     -1.3662554E-28
  0.4290000     -1.4577804E-28
  0.4295000     -1.5145040E-28
  0.4300000     -1.5309807E-28
  0.4305000     -1.5023915E-28
  0.4310000     -1.4247530E-28
  0.4315000     -1.2951226E-28
  0.4320000     -1.1117949E-28
  0.4325000     -8.7448023E-29
  0.4330000     -5.8446280E-29
  0.4335000     -2.4472703E-29
  0.4340000      1.3995119E-29
  0.4345000      5.6295679E-29
  0.4350000      1.0158352E-28
  0.4355000      1.4883463E-28
  0.4360000      1.9685738E-28
  0.4365000      2.4430953E-28
  0.4370000      2.8972118E-28
  0.4375000      3.3152385E-28
  0.4380000      3.6808515E-28
  0.4385000      3.9774881E-28
  0.4390000      4.1887994E-28
  0.4395000      4.2991359E-28
  0.4400000      4.2940678E-28
  0.4405000      4.1609235E-28
  0.4410000      3.8893327E-28
  0.4415000      3.4717620E-28
  0.4420000      2.9040257E-28
  0.4425000      2.1857557E-28
  0.4430000      1.3208141E-28
  0.4435000      3.1763029E-29
  0.4440000     -8.1055073E-29
  0.4445000     -2.0455290E-28
  0.4450000     -3.3641304E-28
  0.4455000     -4.7383211E-28
  0.4460000     -6.1354658E-28
  0.4465000     -7.5187366E-28
  0.4470000     -8.8476779E-28
  0.4475000     -1.0078926E-27
  0.4480000     -1.1167076E-27
  0.4485000     -1.2065704E-27
  0.4490000     -1.2728502E-27
  0.4495000     -1.3110548E-27
  0.4500000     -1.3169653E-27
  0.4505000     -1.2867784E-27
  0.4510000     -1.2172512E-27
  0.4515000     -1.1058473E-27
  0.4520000     -9.5087909E-28
  0.4525000     -7.5164250E-28
  0.4530000     -5.0853930E-28
  0.4535000     -2.2318451E-28
  0.4540000      1.0150727E-28
  0.4545000      4.6126027E-28
  0.4550000      8.5040409E-28
  0.4555000      1.2618732E-27
  0.4560000      1.6872416E-27
  0.4565000      2.1167960E-27
  0.4570000      2.5396493E-27
  0.4575000      2.9438972E-27
  0.4580000      3.3168138E-27
  0.4585000      3.6450909E-27
  0.4590000      3.9151171E-27
  0.4595000      4.1132906E-27
  0.4600000      4.2263685E-27
  0.4605000      4.2418395E-27
  0.4610000      4.1483221E-27
  0.4615000      3.9359714E-27
  0.4620000      3.5968945E-27
  0.4625000      3.1255563E-27
  0.4630000      2.5191726E-27
  0.4635000      1.7780775E-27
  0.4640000      9.0604613E-28
  0.4645000     -8.9427602E-29
  0.4650000     -1.1969188E-27
  0.4655000     -2.4009348E-27
  0.4660000     -3.6818623E-27
  0.4665000     -5.0160125E-27
  0.4670000     -6.3757718E-27
  0.4675000     -7.7298631E-27
  0.4680000     -9.0437279E-27
  0.4685000     -1.0280025E-26
  0.4690000     -1.1399260E-26
  0.4695000     -1.2360523E-26
  0.4700000     -1.3122347E-26
  0.4705000     -1.3643676E-26
  0.4710000     -1.3884909E-26
  0.4715000     -1.3809044E-26
  0.4720000     -1.3382857E-26
  0.4725000     -1.2578133E-26
  0.4730000     -1.1372891E-26
  0.4735000     -9.7525949E-27
  0.4740000     -7.7113103E-27
  0.4745000     -5.2527759E-27
  0.4750000     -2.3913456E-27
  0.4755000      8.4722621E-28
  0.4760000      4.4251892E-27
  0.4765000      8.2924396E-27
  0.4770000      1.2386424E-26
  0.4775000      1.6632333E-26
  0.4780000      2.0943630E-26
  0.4785000      2.5222905E-26
  0.4790000      2.9363101E-26
  0.4795000      3.3249091E-26
  0.4800000      3.6759630E-26
  0.4805000      3.9769661E-26
  0.4810000      4.2152958E-26
  0.4815000      4.3785062E-26
  0.4820000      4.4546501E-26
  0.4825000      4.4326211E-26
  0.4830000      4.3025112E-26