  0.0000000E+00  0.0000000E+00
  5.0000002E-04  0.0000000E+00
  1.0000000E-03  0.0000000E+00
  1.5000000E-03  0.0000000E+00
  2.0000001E-03  0.0000000E+00
  2.4999999E-03  0.0000000E+00
  3.0000000E-03  0.0000000E+00
  3.5000001E-03  0.0000000E+00
  4.0000002E-03  0.0000000E+00
  4.4999998E-03  0.0000000E+00
  4.9999999E-03  0.0000000E+00
  5.5000000E-03  0.0000000E+00
  6.0000001E-03  0.0000000E+00
  6.5000001E-03  0.0000000E+00
  7.0000002E-03  0.0000000E+00
  7.4999998E-03  0.0000000E+00
  8.0000004E-03  0.0000000E+00
  8.5000005E-03  0.0000000E+00
  8.9999996E-03  0.0000000E+00
  9.4999997E-03  0.0000000E+00
  9.9999998E-03  0.0000000E+00
  1.0500000E-02  0.0000000E+00
  1.1000000E-02  0.0000000E+00
  1.1500000E-02  0.0000000E+00
  1.2000000E-02  0.0000000E+00
  1.2500000E-02  0.0000000E+00
  1.3000000E-02  0.0000000E+00
  1.3500000E-02  0.0000000E+00
  1.4000000E-02  0.0000000E+00
  1.4500000E-02  0.0000000E+00
  1.5000000E-02  0.0000000E+00
  1.5500000E-02  0.0000000E+00
  1.6000001E-02  0.0000000E+00
  1.6500000E-02  0.0000000E+00
  1.7000001E-02  0.0000000E+00
  1.7500000E-02  0.0000000E+00
  1.7999999E-02  0.0000000E+00
  1.8500000E-02  0.0000000E+00
  1.8999999E-02  0.0000000E+00
  1.9500000E-02  0.0000000E+00
  2.0000000E-02  0.0000000E+00
  2.0500001E-02  0.0000000E+00
  2.1000000E-02  0.0000000E+00
  2.1500001E-02  0.0000000E+00
  2.2000000E-02  0.0000000E+00
  2.2500001E-02  0.0000000E+00
  2.3000000E-02  0.0000000E+00
  2.3499999E-02  0.0000000E+00
  2.4000000E-02  0.0000000E+00
  2.4499999E-02  0.0000000E+00
  2.5000000E-02  0.0000000E+00
  2.5500000E-02  0.0000000E+00
  2.6000001E-02  0.0000000E+00
  2.6500000E-02  0.0000000E+00
  2.7000001E-02  0.0000000E+00
  2.7500000E-02  0.0000000E+00
  2.8000001E-02  0.0000000E+00
  2.8500000E-02  0.0000000E+00
  2.8999999E-02  0.0000000E+00
  2.9500000E-02  0.0000000E+00
  2.9999999E-02  0.0000000E+00
  3.0500000E-02  0.0000000E+00
  3.0999999E-02  0.0000000E+00
  3.1500001E-02  0.0000000E+00
  3.2000002E-02  0.0000000E+00
  3.2499999E-02  0.0000000E+00
  3.3000000E-02  0.0000000E+00
  3.3500001E-02  0.0000000E+00
  3.4000002E-02  0.0000000E+00
  3.4499999E-02  0.0000000E+00
  3.5000000E-02  0.0000000E+00
  3.5500001E-02  0.0000000E+00
  3.5999998E-02  0.0000000E+00
  3.6499999E-02  0.0000000E+00
  3.7000000E-02  0.0000000E+00
  3.7500001E-02  0.0000000E+00
  3.7999999E-02  0.0000000E+00
  3.8500000E-02  0.0000000E+00
  3.9000001E-02  0.0000000E+00
  3.9500002E-02  0.0000000E+00
  3.9999999E-02  0.0000000E+00
  4.0500000E-02  0.0000000E+00
  4.1000001E-02  0.0000000E+00
  4.1499998E-02  0.0000000E+00
  4.1999999E-02  0.0000000E+00
  4.2500000E-02  0.0000000E+00
  4.3000001E-02  0.0000000E+00
  4.3499999E-02  0.0000000E+00
  4.4000000E-02  0.0000000E+00
  4.4500001E-02  0.0000000E+00
  4.5000002E-02  0.0000000E+00
  4.5499999E-02  0.0000000E+00
  4.6000000E-02  0.0000000E+00
  4.6500001E-02  0.0000000E+00
  4.6999998E-02  0.0000000E+00
  4.7499999E-02  0.0000000E+00
  4.8000000E-02  0.0000000E+00
  4.8500001E-02  0.0000000E+00
  4.8999999E-02  0.0000000E+00
  4.9500000E-02  0.0000000E+00
  5.0000001E-02  0.0000000E+00
  5.0500002E-02  0.0000000E+00
  5.0999999E-02  0.0000000E+00
  5.1500000E-02  0.0000000E+00
  5.2000001E-02  0.0000000E+00
  5.2499998E-02  0.0000000E+00
  5.2999999E-02  0.0000000E+00
  5.3500000E-02  0.0000000E+00
  5.4000001E-02  0.0000000E+00
  5.4499999E-02  0.0000000E+00
  5.5000000E-02  0.0000000E+00
  5.5500001E-02  0.0000000E+00
  5.6000002E-02  0.0000000E+00
  5.6499999E-02  0.0000000E+00
  5.7000000E-02  0.0000000E+00
  5.7500001E-02  0.0000000E+00
  5.7999998E-02  0.0000000E+00
  5.8499999E-02  0.0000000E+00
  5.9000000E-02  0.0000000E+00
  5.9500001E-02  0.0000000E+00
  5.9999999E-02  0.0000000E+00
  6.0500000E-02  0.0000000E+00
  6.1000001E-02  0.0000000E+00
  6.1500002E-02  0.0000000E+00
  6.1999999E-02  0.0000000E+00
  6.2500000E-02  0.0000000E+00
  6.3000001E-02  0.0000000E+00
  6.3500002E-02  0.0000000E+00
  6.4000003E-02  0.0000000E+00
  6.4499997E-02  0.0000000E+00
  6.4999998E-02  0.0000000E+00
  6.5499999E-02  0.0000000E+00
  6.6000000E-02  0.0000000E+00
  6.6500001E-02  0.0000000E+00
  6.7000002E-02  0.0000000E+00
  6.7500003E-02  0.0000000E+00
  6.8000004E-02  0.0000000E+00
  6.8499997E-02  0.0000000E+00
  6.8999998E-02  0.0000000E+00
  6.9499999E-02  0.0000000E+00
  7.0000000E-02  0.0000000E+00
  7.0500001E-02  0.0000000E+00
  7.1000002E-02  0.0000000E+00
  7.1500003E-02  0.0000000E+00
  7.1999997E-02  0.0000000E+00
  7.2499998E-02  0.0000000E+00
  7.2999999E-02  0.0000000E+00
  7.3500000E-02  0.0000000E+00
  7.4000001E-02  0.0000000E+00
  7.4500002E-02  0.0000000E+00
  7.5000003E-02  0.0000000E+00
  7.5499997E-02  0.0000000E+00
  7.5999998E-02  0.0000000E+00
  7.6499999E-02  0.0000000E+00
  7.7000000E-02  0.0000000E+00
  7.7500001E-02  0.0000000E+00
  7.8000002E-02  0.0000000E+00
  7.8500003E-02  0.0000000E+00
  7.9000004E-02  0.0000000E+00
  7.9499997E-02  0.0000000E+00
  7.9999998E-02  0.0000000E+00
  8.0499999E-02  0.0000000E+00
  8.1000000E-02  0.0000000E+00
  8.1500001E-02  0.0000000E+00
  8.2000002E-02  0.0000000E+00
  8.2500003E-02  0.0000000E+00
  8.2999997E-02  0.0000000E+00
  8.3499998E-02  0.0000000E+00
  8.3999999E-02  0.0000000E+00
  8.4500000E-02  0.0000000E+00
  8.5000001E-02  0.0000000E+00
  8.5500002E-02  0.0000000E+00
  8.6000003E-02  0.0000000E+00
  8.6499996E-02  0.0000000E+00
  8.6999997E-02  0.0000000E+00
  8.7499999E-02  0.0000000E+00
  8.8000000E-02  0.0000000E+00
  8.8500001E-02  0.0000000E+00
  8.9000002E-02  0.0000000E+00
  8.9500003E-02  0.0000000E+00
  9.0000004E-02  0.0000000E+00
  9.0499997E-02  0.0000000E+00
  9.0999998E-02  0.0000000E+00
  9.1499999E-02  0.0000000E+00
  9.2000000E-02  0.0000000E+00
  9.2500001E-02  0.0000000E+00
  9.3000002E-02  0.0000000E+00
  9.3500003E-02  0.0000000E+00
  9.3999997E-02  0.0000000E+00
  9.4499998E-02  0.0000000E+00
  9.4999999E-02  0.0000000E+00
  9.5500000E-02  0.0000000E+00
  9.6000001E-02  0.0000000E+00
  9.6500002E-02  0.0000000E+00
  9.7000003E-02  0.0000000E+00
  9.7499996E-02  0.0000000E+00
  9.7999997E-02  0.0000000E+00
  9.8499998E-02  0.0000000E+00
  9.8999999E-02  0.0000000E+00
  9.9500000E-02  0.0000000E+00
  0.1000000      0.0000000E+00
  0.1005000      0.0000000E+00
  0.1010000      0.0000000E+00
  0.1015000      0.0000000E+00
  0.1020000      0.0000000E+00
  0.1025000      0.0000000E+00
  0.1030000      0.0000000E+00
  0.1035000      0.0000000E+00
  0.1040000      0.0000000E+00
  0.1045000      0.0000000E+00
  0.1050000      0.0000000E+00
  0.1055000      0.0000000E+00
  0.1060000      0.0000000E+00
  0.1065000      0.0000000E+00
  0.1070000      0.0000000E+00
  0.1075000      0.0000000E+00
  0.1080000      0.0000000E+00
  0.1085000      0.0000000E+00
  0.1090000      0.0000000E+00
  0.1095000      0.0000000E+00
  0.1100000      0.0000000E+00
  0.1105000      0.0000000E+00
  0.1110000      0.0000000E+00
  0.1115000      0.0000000E+00
  0.1120000      0.0000000E+00
  0.1125000      0.0000000E+00
  0.1130000      0.0000000E+00
  0.1135000      0.0000000E+00
  0.1140000      0.0000000E+00
  0.1145000      0.0000000E+00
  0.1150000      0.0000000E+00
  0.1155000      0.0000000E+00
  0.1160000      0.0000000E+00
  0.1165000      0.0000000E+00
  0.1170000      0.0000000E+00
  0.1175000      0.0000000E+00
  0.1180000      0.0000000E+00
  0.1185000      0.0000000E+00
  0.1190000      0.0000000E+00
  0.1195000      0.0000000E+00
  0.1200000      0.0000000E+00
  0.1205000      0.0000000E+00
  0.1210000      0.0000000E+00
  0.1215000      0.0000000E+00
  0.1220000      0.0000000E+00
  0.1225000      0.0000000E+00
  0.1230000      0.0000000E+00
  0.1235000      0.0000000E+00
  0.1240000      0.0000000E+00
  0.1245000      0.0000000E+00
  0.1250000      0.0000000E+00
  0.1255000      0.0000000E+00
  0.1260000      0.0000000E+00
  0.1265000      0.0000000E+00
  0.1270000      0.0000000E+00
  0.1275000      0.0000000E+00
  0.1280000      0.0000000E+00
  0.1285000      0.0000000E+00
  0.1290000      0.0000000E+00
  0.1295000      0.0000000E+00
  0.1300000      0.0000000E+00
  0.1305000      0.0000000E+00
  0.1310000      0.0000000E+00
  0.1315000      0.0000000E+00
  0.1320000      0.0000000E+00
  0.1325000      0.0000000E+00
  0.1330000      0.0000000E+00
  0.1335000      0.0000000E+00
  0.1340000      0.0000000E+00
  0.1345000      0.0000000E+00
  0.1350000      0.0000000E+00
  0.1355000      0.0000000E+00
  0.1360000      0.0000000E+00
  0.1365000      0.0000000E+00
  0.1370000      0.0000000E+00
  0.1375000      0.0000000E+00
  0.1380000      0.0000000E+00
  0.1385000      0.0000000E+00
  0.1390000      0.0000000E+00
  0.1395000      0.0000000E+00
  0.1400000      0.0000000E+00
  0.1405000      0.0000000E+00
  0.1410000      0.0000000E+00
  0.1415000      0.0000000E+00
  0.1420000      0.0000000E+00
  0.1425000      0.0000000E+00
  0.1430000      0.0000000E+00
  0.1435000      0.0000000E+00
  0.1440000      0.0000000E+00
  0.1445000      0.0000000E+00
  0.1450000      0.0000000E+00
  0.1455000      0.0000000E+00
  0.1460000      0.0000000E+00
  0.1465000      0.0000000E+00
  0.1470000      0.0000000E+00
  0.1475000      0.0000000E+00
  0.1480000      0.0000000E+00
  0.1485000      0.0000000E+00
  0.1490000      0.0000000E+00
  0.1495000      0.0000000E+00
  0.1500000      0.0000000E+00
  0.1505000      0.0000000E+00
  0.1510000      0.0000000E+00
  0.1515000      0.0000000E+00
  0.1520000      0.0000000E+00
  0.1525000      0.0000000E+00
  0.1530000      0.0000000E+00
  0.1535000      0.0000000E+00
  0.1540000      0.0000000E+00
  0.1545000      0.0000000E+00
  0.1550000      0.0000000E+00
  0.1555000      0.0000000E+00
  0.1560000      0.0000000E+00
  0.1565000      0.0000000E+00
  0.1570000      0.0000000E+00
  0.1575000      0.0000000E+00
  0.1580000      0.0000000E+00
  0.1585000      0.0000000E+00
  0.1590000      0.0000000E+00
  0.1595000      0.0000000E+00
  0.1600000      0.0000000E+00
  0.1605000      0.0000000E+00
  0.1610000      0.0000000E+00
  0.1615000      0.0000000E+00
  0.1620000      0.0000000E+00
  0.1625000      0.0000000E+00
  0.1630000      0.0000000E+00
  0.1635000      0.0000000E+00
  0.1640000      0.0000000E+00
  0.1645000      0.0000000E+00
  0.1650000      0.0000000E+00
  0.1655000      0.0000000E+00
  0.1660000      0.0000000E+00
  0.1665000      0.0000000E+00
  0.1670000      0.0000000E+00
  0.1675000      0.0000000E+00
  0.1680000      0.0000000E+00
  0.1685000      0.0000000E+00
  0.1690000      0.0000000E+00
  0.1695000      0.0000000E+00
  0.1700000      0.0000000E+00
  0.1705000      0.0000000E+00
  0.1710000      0.0000000E+00
  0.1715000      0.0000000E+00
  0.1720000      0.0000000E+00
  0.1725000      0.0000000E+00
  0.1730000      0.0000000E+00
  0.1735000      0.0000000E+00
  0.1740000      0.0000000E+00
  0.1745000      0.0000000E+00
  0.1750000      0.0000000E+00
  0.1755000      0.0000000E+00
  0.1760000      0.0000000E+00
  0.1765000      0.0000000E+00
  0.1770000      0.0000000E+00
  0.1775000      0.0000000E+00
  0.1780000      0.0000000E+00
  0.1785000      0.0000000E+00
  0.1790000      0.0000000E+00
  0.1795000      0.0000000E+00
  0.1800000      0.0000000E+00
  0.1805000      0.0000000E+00
  0.1810000      0.0000000E+00
  0.1815000      0.0000000E+00
  0.1820000      0.0000000E+00
  0.1825000      0.0000000E+00
  0.1830000      0.0000000E+00
  0.1835000      0.0000000E+00
  0.1840000      0.0000000E+00
  0.1845000      0.0000000E+00
  0.1850000      0.0000000E+00
  0.1855000      0.0000000E+00
  0.1860000      0.0000000E+00
  0.1865000      0.0000000E+00
  0.1870000      0.0000000E+00
  0.1875000      0.0000000E+00
  0.1880000      0.0000000E+00
  0.1885000      0.0000000E+00
  0.1890000      0.0000000E+00
  0.1895000      0.0000000E+00
  0.1900000      0.0000000E+00
  0.1905000      0.0000000E+00
  0.1910000      0.0000000E+00
  0.1915000      0.0000000E+00
  0.1920000      0.0000000E+00
  0.1925000      0.0000000E+00
  0.1930000      0.0000000E+00
  0.1935000      0.0000000E+00
  0.1940000      0.0000000E+00
  0.1945000      0.0000000E+00
  0.1950000      0.0000000E+00
  0.1955000      0.0000000E+00
  0.1960000      0.0000000E+00
  0.1965000      0.0000000E+00
  0.1970000      0.0000000E+00
  0.1975000      0.0000000E+00
  0.1980000      0.0000000E+00
  0.1985000      0.0000000E+00
  0.1990000      0.0000000E+00
  0.1995000      0.0000000E+00
  0.2000000      0.0000000E+00
  0.2005000      0.0000000E+00
  0.2010000      0.0000000E+00
  0.2015000      0.0000000E+00
  0.2020000      0.0000000E+00
  0.2025000      0.0000000E+00
  0.2030000      0.0000000E+00
  0.2035000      0.0000000E+00
  0.2040000      0.0000000E+00
  0.2045000      0.0000000E+00
  0.2050000      0.0000000E+00
  0.2055000      0.0000000E+00
  0.2060000      0.0000000E+00
  0.2065000      0.0000000E+00
  0.2070000      0.0000000E+00
  0.2075000      0.0000000E+00
  0.2080000      0.0000000E+00
  0.2085000      0.0000000E+00
  0.2090000      0.0000000E+00
  0.2095000      0.0000000E+00
  0.2100000      0.0000000E+00
  0.2105000      0.0000000E+00
  0.2110000      0.0000000E+00
  0.2115000      0.0000000E+00
  0.2120000      0.0000000E+00
  0.2125000      0.0000000E+00
  0.2130000      0.0000000E+00
  0.2135000      0.0000000E+00
  0.2140000      0.0000000E+00
  0.2145000      0.0000000E+00
  0.2150000      0.0000000E+00
  0.2155000      0.0000000E+00
  0.2160000      0.0000000E+00
  0.2165000      0.0000000E+00
  0.2170000      0.0000000E+00
  0.2175000      0.0000000E+00
  0.2180000      0.0000000E+00
  0.2185000      0.0000000E+00
  0.2190000      0.0000000E+00
  0.2195000      0.0000000E+00
  0.2200000      0.0000000E+00
  0.2205000      0.0000000E+00
  0.2210000      0.0000000E+00
  0.2215000      0.0000000E+00
  0.2220000      0.0000000E+00
  0.2225000      0.0000000E+00
  0.2230000      0.0000000E+00
  0.2235000      0.0000000E+00
  0.2240000      0.0000000E+00
  0.2245000      0.0000000E+00
  0.2250000      0.0000000E+00
  0.2255000      0.0000000E+00
  0.2260000      0.0000000E+00
  0.2265000      0.0000000E+00
  0.2270000      0.0000000E+00
  0.2275000      0.0000000E+00
  0.2280000      0.0000000E+00
  0.2285000      0.0000000E+00
  0.2290000      0.0000000E+00
  0.2295000      0.0000000E+00
  0.2300000      0.0000000E+00
  0.2305000      0.0000000E+00
  0.2310000      0.0000000E+00
  0.2315000      0.0000000E+00
  0.2320000      0.0000000E+00
  0.2325000      0.0000000E+00
  0.2330000      0.0000000E+00
  0.2335000      0.0000000E+00
  0.2340000      0.0000000E+00
  0.2345000      0.0000000E+00
  0.2350000      0.0000000E+00
  0.2355000      0.0000000E+00
  0.2360000      0.0000000E+00
  0.2365000      0.0000000E+00
  0.2370000      0.0000000E+00
  0.2375000      0.0000000E+00
  0.2380000      0.0000000E+00
  0.2385000      0.0000000E+00
  0.2390000      0.0000000E+00
  0.2395000      0.0000000E+00
  0.2400000      0.0000000E+00
  0.2405000      0.0000000E+00
  0.2410000      0.0000000E+00
  0.2415000      0.0000000E+00
  0.2420000      0.0000000E+00
  0.2425000      0.0000000E+00
  0.2430000      0.0000000E+00
  0.2435000      0.0000000E+00
  0.2440000      0.0000000E+00
  0.2445000      0.0000000E+00
  0.2450000      0.0000000E+00
  0.2455000      0.0000000E+00
  0.2460000      0.0000000E+00
  0.2465000      0.0000000E+00
  0.2470000      0.0000000E+00
  0.2475000      0.0000000E+00
  0.2480000      0.0000000E+00
  0.2485000      0.0000000E+00
  0.2490000      0.0000000E+00
  0.2495000      0.0000000E+00
  0.2500000      0.0000000E+00
  0.2505000      0.0000000E+00
  0.2510000      0.0000000E+00
  0.2515000      0.0000000E+00
  0.2520000      0.0000000E+00
  0.2525000      0.0000000E+00
  0.2530000      0.0000000E+00
  0.2535000      0.0000000E+00
  0.2540000      0.0000000E+00
  0.2545000      0.0000000E+00
  0.2550000      0.0000000E+00
  0.2555000      0.0000000E+00
  0.2560000      0.0000000E+00
  0.2565000      0.0000000E+00
  0.2570000      0.0000000E+00
  0.2575000      0.0000000E+00
  0.2580000      0.0000000E+00
  0.2585000      0.0000000E+00
  0.2590000      0.0000000E+00
  0.2595000      0.0000000E+00
  0.2600000      0.0000000E+00
  0.2605000      0.0000000E+00
  0.2610000      0.0000000E+00
  0.2615000      0.0000000E+00
  0.2620000      0.0000000E+00
  0.2625000      0.0000000E+00
  0.2630000      0.0000000E+00
  0.2635000      0.0000000E+00
  0.2640000      0.0000000E+00
  0.2645000      0.0000000E+00
  0.2650000      0.0000000E+00
  0.2655000      0.0000000E+00
  0.2660000      0.0000000E+00
  0.2665000      0.0000000E+00
  0.2670000      0.0000000E+00
  0.2675000      0.0000000E+00
  0.2680000      0.0000000E+00
  0.2685000      0.0000000E+00
  0.2690000      0.0000000E+00
  0.2695000      0.0000000E+00
  0.2700000      0.0000000E+00
  0.2705000      0.0000000E+00
  0.2710000      0.0000000E+00
  0.2715000      0.0000000E+00
  0.2720000      0.0000000E+00
  0.2725000      0.0000000E+00
  0.2730000      0.0000000E+00
  0.2735000      0.0000000E+00
  0.2740000      0.0000000E+00
  0.2745000      0.0000000E+00
  0.2750000      0.0000000E+00
  0.2755000      0.0000000E+00
  0.2760000      0.0000000E+00
  0.2765000      0.0000000E+00
  0.2770000      0.0000000E+00
  0.2775000      0.0000000E+00
  0.2780000      0.0000000E+00
  0.2785000      0.0000000E+00
  0.2790000      0.0000000E+00
  0.2795000      0.0000000E+00
  0.2800000      0.0000000E+00
  0.2805000      0.0000000E+00
  0.2810000      0.0000000E+00
  0.2815000      0.0000000E+00
  0.2820000      0.0000000E+00
  0.2825000      0.0000000E+00
  0.2830000      0.0000000E+00
  0.2835000      0.0000000E+00
  0.2840000      0.0000000E+00
  0.2845000      0.0000000E+00
  0.2850000      0.0000000E+00
  0.2855000      0.0000000E+00
  0.2860000      0.0000000E+00
  0.2865000      0.0000000E+00
  0.2870000      0.0000000E+00
  0.2875000      0.0000000E+00
  0.2880000      0.0000000E+00
  0.2885000      0.0000000E+00
  0.2890000      0.0000000E+00
  0.2895000      0.0000000E+00
  0.2900000      0.0000000E+00
  0.2905000      0.0000000E+00
  0.2910000      0.0000000E+00
  0.2915000      0.0000000E+00
  0.2920000      0.0000000E+00
  0.2925000      0.0000000E+00
  0.2930000      0.0000000E+00
  0.2935000      0.0000000E+00
  0.2940000      0.0000000E+00
  0.2945000      0.0000000E+00
  0.2950000      0.0000000E+00
  0.2955000      0.0000000E+00
  0.2960000      0.0000000E+00
  0.2965000      0.0000000E+00
  0.2970000      0.0000000E+00
  0.2975000      0.0000000E+00
  0.2980000      0.0000000E+00
  0.2985000      0.0000000E+00
  0.2990000      0.0000000E+00
  0.2995000      0.0000000E+00
  0.3000000      0.0000000E+00
  0.3005000      0.0000000E+00
  0.3010000      0.0000000E+00
  0.3015000      0.0000000E+00
  0.3020000      0.0000000E+00
  0.3025000      0.0000000E+00
  0.3030000      0.0000000E+00
  0.3035000      1.3571074E-38
  0.3040000      1.5096913E-38
  0.3045000      1.6074539E-38
  0.3050000      1.5178667E-38
  0.3055000      1.2871725E-38
  0.3060000      0.0000000E+00
  0.3065000      0.0000000E+00
  0.3070000      0.0000000E+00
  0.3075000      0.0000000E+00
  0.3080000     -2.1144385E-38
  0.3085000     -3.1978466E-38
  0.3090000     -4.3663359E-38
  0.3095000     -5.5828381E-38
  0.3100000     -6.4761535E-38
  0.3105000     -7.4571152E-38
  0.3110000     -9.8388394E-38
  0.3115000     -1.2949971E-37
  0.3120000     -1.6444285E-37
  0.3125000     -2.0188958E-37
  0.3130000     -2.3988613E-37
  0.3135000     -2.7628557E-37
  0.3140000     -3.0865491E-37
  0.3145000     -3.3446719E-37
  0.3150000     -3.5063705E-37
  0.3155000     -3.5425800E-37
  0.3160000     -3.4274225E-37
  0.3165000     -3.1349477E-37
  0.3170000     -2.6466351E-37
  0.3175000     -1.9510610E-37
  0.3180000     -1.0453987E-37
  0.3185000      0.0000000E+00
  0.3190000      1.3663593E-37
  0.3195000      2.8322959E-37
  0.3200000      4.4309488E-37
  0.3205000      6.2204240E-37
  0.3210000      7.8958411E-37
  0.3215000      9.6095372E-37
  0.3220000      1.1252420E-36
  0.3225000      1.2763597E-36
  0.3230000      1.4080082E-36
  0.3235000      1.5138452E-36
  0.3240000      1.5873844E-36
  0.3245000      1.6224069E-36
  0.3250000      1.6129370E-36
  0.3255000      1.5534893E-36
  0.3260000      1.4391503E-36
  0.3265000      1.2658694E-36
  0.3270000      1.0304068E-36
  0.3275000      7.3088620E-37
  0.3280000      3.6679759E-37
  0.3285000     -6.0699171E-38
  0.3290000     -5.4848898E-37
  0.3295000     -1.0912951E-36
  0.3300000     -1.6813280E-36
  0.3305000     -2.3081480E-36
  0.3310000     -2.9583675E-36
  0.3315000     -3.6155545E-36
  0.3320000     -4.2602792E-36
  0.3325000     -4.8700593E-36
  0.3330000     -5.4197931E-36
  0.3335000     -5.8821457E-36
  0.3340000     -6.2281736E-36
  0.3345000     -6.4280557E-36
  0.3350000     -6.4520169E-36
  0.3355000     -6.2713901E-36
  0.3360000     -5.8597902E-36
  0.3365000     -5.1944137E-36
  0.3370000     -4.2574014E-36
  0.3375000     -3.0372413E-36
  0.3380000     -1.5302038E-36
  0.3385000      2.5830014E-37
  0.3390000      2.3124734E-36
  0.3395000      4.6050522E-36
  0.3400000      7.0965291E-36
  0.3405000      9.7346709E-36
  0.3410000      1.2454500E-35
  0.3415000      1.5178650E-35
  0.3420000      1.7818256E-35
  0.3425000      2.0274313E-35
  0.3430000      2.2439582E-35
  0.3435000      2.4200961E-35
  0.3440000      2.5442335E-35
  0.3445000      2.6047904E-35
  0.3450000      2.5904472E-35
  0.3455000      2.4911323E-35
  0.3460000      2.2975884E-35
  0.3465000      2.0024110E-35
  0.3470000      1.6003764E-35
  0.3475000      1.0889110E-35
  0.3480000      4.6853835E-36
  0.3485000     -2.5670740E-36
  0.3490000     -1.0789210E-35
  0.3495000     -1.9860395E-35
  0.3500000     -2.9616477E-35
  0.3505000     -3.9848937E-35
  0.3510000     -5.0305298E-35
  0.3515000     -6.0690946E-35
  0.3520000     -7.0672465E-35
  0.3525000     -7.9882624E-35
  0.3530000     -8.7927023E-35
  0.3535000     -9.4392506E-35
  0.3540000     -9.8857261E-35
  0.3545000     -1.0090258E-34
  0.3550000     -1.0012618E-34
  0.3555000     -9.6156936E-35
  0.3560000     -8.8670615E-35
  0.3565000     -7.7406349E-35
  0.3570000     -6.2183485E-35
  0.3575000     -4.2918249E-35
  0.3580000     -1.9639704E-35
  0.3585000      7.4956362E-36
  0.3590000      3.8191157E-35
  0.3595000      7.2000062E-35
  0.3600000      1.0831868E-34
  0.3605000      1.4638361E-34
  0.3610000      1.8527351E-34
  0.3615000      2.2391595E-34
  0.3620000      2.6109986E-34
  0.3625000      2.9549412E-34
  0.3630000      3.2567211E-34
  0.3635000      3.5014273E-34
  0.3640000      3.6738756E-34
  0.3645000      3.7590374E-34
  0.3650000      3.7425224E-34
  0.3655000      3.6111046E-34
  0.3660000      3.3532848E-34
  0.3665000      2.9598691E-34
  0.3670000      2.4245593E-34
  0.3675000      1.7445260E-34
  0.3680000      9.2095511E-35
  0.3685000     -4.0461597E-36
  0.3690000     -1.1291054E-34
  0.3695000     -2.3291096E-34
  0.3700000     -3.6191545E-34
  0.3705000     -4.9724036E-34
  0.3710000     -6.3566010E-34
  0.3715000     -7.7343460E-34
  0.3720000     -9.0635592E-34
  0.3725000     -1.0298160E-33
  0.3730000     -1.1388938E-33
  0.3735000     -1.2284646E-33
  0.3740000     -1.2933291E-33
  0.3745000     -1.3283611E-33
  0.3750000     -1.3286716E-33
  0.3755000     -1.2897871E-33
  0.3760000     -1.2078380E-33
  0.3765000     -1.0797517E-33
  0.3770000     -9.0344694E-34
  0.3775000     -6.7802156E-34
  0.3780000     -4.0392943E-34
  0.3785000     -8.3136626E-35
  0.3790000      2.8074681E-34
  0.3795000      6.8236997E-34
  0.3800000      1.1145847E-33
  0.3805000      1.5684368E-33
  0.3810000      2.0332103E-33
  0.3815000      2.4965331E-33
  0.3820000      2.9445426E-33
  0.3825000      3.3621207E-33
  0.3830000      3.7331937E-33
  0.3835000      4.0410979E-33
  0.3840000      4.2690109E-33
  0.3845000      4.4004367E-33
  0.3850000      4.4197408E-33
  0.3855000      4.3127279E-33
  0.3860000      4.0672420E-33
  0.3865000      3.6737773E-33
  0.3870000      3.1260843E-33
  0.3875000      2.4217500E-33
  0.3880000      1.5627296E-33
  0.3885000      5.5580821E-34
  0.3890000     -5.8702402E-34
  0.3895000     -1.8483177E-33
  0.3900000     -3.2050408E-33
  0.3905000     -4.6286093E-33
  0.3910000     -6.0850949E-33
  0.3915000     -7.5356160E-33
  0.3920000     -8.9369265E-33
  0.3925000     -1.0242204E-32
  0.3930000     -1.1402045E-32
  0.3935000     -1.2365641E-32
  0.3940000     -1.3082155E-32
  0.3945000     -1.3502235E-32
  0.3950000     -1.3579675E-32
  0.3955000     -1.3273161E-32
  0.3960000     -1.2548070E-32
  0.3965000     -1.1378290E-32
  0.3970000     -9.7479493E-33
  0.3975000     -7.6530729E-33
  0.3980000     -5.1030425E-33
  0.3985000     -2.1218211E-33
  0.3990000      1.2511278E-33
  0.3995000      4.9602897E-33
  0.4000000      8.9339694E-33
  0.4005000      1.3084649E-32
  0.4010000      1.7309858E-32
  0.4015000      2.1493603E-32
  0.4020000      2.5508360E-32
  0.4025000      2.9217647E-32
  0.4030000      3.2479144E-32
  0.4035000      3.5148348E-32
  0.4040000      3.7082688E-32
  0.4045000      3.8146032E-32
  0.4050000      3.8213496E-32
  0.4055000      3.7176440E-32
  0.4060000      3.4947512E-32
  0.4065000      3.1465574E-32
  0.4070000      2.6700405E-32
  0.4075000      2.0656931E-32
  0.4080000      1.3378871E-32
  0.4085000      4.9515742E-33
  0.4090000     -4.4960954E-33
  0.4095000     -1.4790994E-32
  0.4100000     -2.5716216E-32
  0.4105000     -3.7012976E-32
  0.4110000     -4.8384000E-32
  0.4115000     -5.9498411E-32
  0.4120000     -6.9998220E-32
  0.4125000     -7.9506271E-32
  0.4130000     -8.7635649E-32
  0.4135000     -9.4000386E-32
  0.4140000     -9.8227241E-32
  0.4145000     -9.9968389E-32
  0.4150000     -9.8914676E-32
  0.4155000     -9.4808974E-32
  0.4160000     -8.7459583E-32
  0.4165000     -7.6752857E-32
  0.4170000     -6.2664834E-32
  0.4175000     -4.5271479E-32
  0.4180000     -2.4756757E-32
  0.4185000     -1.4184484E-33
  0.4190000      2.4328973E-32
  0.4195000      5.1954687E-32
  0.4200000      8.0815442E-32
  0.4205000      1.1016331E-31
  0.4210000      1.3915738E-31
  0.4215000      1.6687960E-31
  0.4220000      1.9235444E-31
  0.4225000      2.1457255E-31
  0.4230000      2.3251774E-31
  0.4235000      2.4519721E-31
  0.4240000      2.5167386E-31
  0.4245000      2.5110076E-31
  0.4250000      2.4275611E-31
  0.4255000      2.2607829E-31
  0.4260000      2.0069972E-31
  0.4265000      1.6647838E-31
  0.4270000      1.2352588E-31
  0.4275000      7.2230854E-32
  0.4280000      1.3276520E-32
  0.4285000     -5.2348790E-32
  0.4290000     -1.2334903E-31
  0.4295000     -1.9812682E-31
  0.4300000     -2.7479945E-31
  0.4305000     -3.5122490E-31
  0.4310000     -4.2503859E-31
  0.4315000     -4.9370020E-31
  0.4320000     -5.5455084E-31
  0.4325000     -6.0487968E-31
  0.4330000     -6.4199887E-31
  0.4335000     -6.6332591E-31
  0.4340000     -6.6647154E-31
  0.4345000     -6.4933081E-31
  0.4350000     -6.1017584E-31
  0.4355000     -5.4774727E-31
  0.4360000     -4.6134119E-31
  0.4365000     -3.5088981E-31
  0.4370000     -2.1703159E-31
  0.4375000     -6.1168600E-32
  0.4380000      1.1449227E-31
  0.4385000      3.0691654E-31
  0.4390000      5.1224108E-31
  0.4395000      7.2579653E-31
  0.4400000      9.4215468E-31
  0.4405000      1.1552032E-30
  0.4410000      1.3582470E-30
  0.4415000      1.5441366E-30
  0.4420000      1.7054232E-30
  0.4425000      1.8345391E-30
  0.4430000      1.9239987E-30
  0.4435000      1.9666205E-30
  0.4440000      1.9557617E-30
  0.4445000      1.8855652E-30
  0.4450000      1.7512088E-30
  0.4455000      1.5491522E-30
  0.4460000      1.2773766E-30
  0.4465000      9.3560558E-31
  0.4470000      5.2550282E-31
  0.4475000      5.0837786E-32
  0.4480000     -4.8238959E-31
  0.4485000     -1.0658698E-30
  0.4490000     -1.6889601E-30
  0.4495000     -2.3387201E-30
  0.4500000     -3.0000149E-30
  0.4505000     -3.6556855E-30
  0.4510000     -4.2867932E-30
  0.4515000     -4.8729368E-30
  0.4520000     -5.3926407E-30
  0.4525000     -5.8238162E-30
  0.4530000     -6.1442830E-30
  0.4535000     -6.3323553E-30
  0.4540000     -6.3674682E-30
  0.4545000     -6.2308479E-30
  0.4550000     -5.9062076E-30
  0.4555000     -5.3804438E-30
  0.4560000     -4.6443342E-30
  0.4565000     -3.6932016E-30
  0.4570000     -2.5275372E-30
  0.4575000     -1.1535518E-30
  0.4580000      4.1635996E-31
  0.4585000      2.1632619E-30
  0.4590000      4.0614511E-30
  0.4595000      6.0783790E-30
  0.4600000      8.1747413E-30
  0.4605000      1.0304747E-29
  0.4610000      1.2416581E-29
  0.4615000      1.4453069E-29
  0.4620000      1.6352554E-29
  0.4625000      1.8049964E-29
  0.4630000      1.9478108E-29
  0.4635000      2.0569136E-29
  0.4640000      2.1256185E-29
  0.4645000      2.1475181E-29
  0.4650000      2.1166756E-29
  0.4655000      2.0278262E-29
  0.4660000      1.8765822E-29
  0.4665000      1.6596397E-29
  0.4670000      1.3749808E-29
  0.4675000      1.0220625E-29
  0.4680000      6.0199439E-30
  0.4685000      1.1768983E-30
  0.4690000     -4.2600818E-30
  0.4695000     -1.0222362E-29
  0.4700000     -1.6620604E-29
  0.4705000     -2.3344710E-29
  0.4710000     -3.0264280E-29
  0.4715000     -3.7229622E-29
  0.4720000     -4.4073327E-29
  0.4725000     -5.0612482E-29
  0.4730000     -5.6651458E-29
  0.4735000     -6.1985369E-29
  0.4740000     -6.6404054E-29
  0.4745000     -6.9696678E-29
  0.4750000     -7.1656824E-29
  0.4755000     -7.2088021E-29
  0.4760000     -7.0809595E-29
  0.4765000     -6.7662836E-29
  0.4770000     -6.2517161E-29
  0.4775000     -5.5276404E-29
  0.4780000     -4.5884824E-29
  0.4785000     -3.4332777E-29
  0.4790000     -2.0661917E-29
  0.4795000     -4.9696715E-30
  0.4800000      1.2587178E-29
  0.4805000      3.1789962E-29
  0.4810000      5.2356839E-29
  0.4815000      7.3942920E-29
  0.4820000      9.6141905E-29
  0.4825000      1.1848942E-28
  0.4830000      1.4046812E-28