  0.0000000E+00  0.0000000E+00
  5.0000002E-04  0.0000000E+00
  1.0000000E-03  0.0000000E+00
  1.5000000E-03  0.0000000E+00
  2.0000001E-03  0.0000000E+00
  2.4999999E-03  0.0000000E+00
  3.0000000E-03  0.0000000E+00
  3.5000001E-03  0.0000000E+00
  4.0000002E-03  0.0000000E+00
  4.4999998E-03  0.0000000E+00
  4.9999999E-03  0.0000000E+00
  5.5000000E-03  0.0000000E+00
  6.0000001E-03  0.0000000E+00
  6.5000001E-03  0.0000000E+00
  7.0000002E-03  0.0000000E+00
  7.4999998E-03  0.0000000E+00
  8.0000004E-03  0.0000000E+00
  8.5000005E-03  0.0000000E+00
  8.9999996E-03  0.0000000E+00
  9.4999997E-03  0.0000000E+00
  9.9999998E-03  0.0000000E+00
  1.0500000E-02  0.0000000E+00
  1.1000000E-02  0.0000000E+00
  1.1500000E-02  0.0000000E+00
  1.2000000E-02  0.0000000E+00
  1.2500000E-02  0.0000000E+00
  1.3000000E-02  0.0000000E+00
  1.3500000E-02  0.0000000E+00
  1.4000000E-02  0.0000000E+00
  1.4500000E-02  0.0000000E+00
  1.5000000E-02  0.0000000E+00
  1.5500000E-02  0.0000000E+00
  1.6000001E-02  0.0000000E+00
  1.6500000E-02  0.0000000E+00
  1.7000001E-02  0.0000000E+00
  1.7500000E-02  0.0000000E+00
  1.7999999E-02  0.0000000E+00
  1.8500000E-02  0.0000000E+00
  1.8999999E-02  0.0000000E+00
  1.9500000E-02  0.0000000E+00
  2.0000000E-02  0.0000000E+00
  2.0500001E-02  0.0000000E+00
  2.1000000E-02  0.0000000E+00
  2.1500001E-02  0.0000000E+00
  2.2000000E-02  0.0000000E+00
  2.2500001E-02  0.0000000E+00
  2.3000000E-02  0.0000000E+00
  2.3499999E-02  0.0000000E+00
  2.4000000E-02  0.0000000E+00
  2.4499999E-02  0.0000000E+00
  2.5000000E-02  0.0000000E+00
  2.5500000E-02  0.0000000E+00
  2.6000001E-02  0.0000000E+00
  2.6500000E-02  0.0000000E+00
  2.7000001E-02  0.0000000E+00
  2.7500000E-02  0.0000000E+00
  2.8000001E-02  0.0000000E+00
  2.8500000E-02  0.0000000E+00
  2.8999999E-02  0.0000000E+00
  2.9500000E-02  0.0000000E+00
  2.9999999E-02  0.0000000E+00
  3.0500000E-02  0.0000000E+00
  3.0999999E-02  0.0000000E+00
  3.1500001E-02  0.0000000E+00
  3.2000002E-02  0.0000000E+00
  3.2499999E-02  0.0000000E+00
  3.3000000E-02  0.0000000E+00
  3.3500001E-02  0.0000000E+00
  3.4000002E-02  0.0000000E+00
  3.4499999E-02  0.0000000E+00
  3.5000000E-02  0.0000000E+00
  3.5500001E-02  0.0000000E+00
  3.5999998E-02  0.0000000E+00
  3.6499999E-02  0.0000000E+00
  3.7000000E-02  0.0000000E+00
  3.7500001E-02  0.0000000E+00
  3.7999999E-02  0.0000000E+00
  3.8500000E-02  0.0000000E+00
  3.9000001E-02  0.0000000E+00
  3.9500002E-02  0.0000000E+00
  3.9999999E-02  0.0000000E+00
  4.0500000E-02  0.0000000E+00
  4.1000001E-02  0.0000000E+00
  4.1499998E-02  0.0000000E+00
  4.1999999E-02  0.0000000E+00
  4.2500000E-02  0.0000000E+00
  4.3000001E-02  0.0000000E+00
  4.3499999E-02  0.0000000E+00
  4.4000000E-02  0.0000000E+00
  4.4500001E-02  0.0000000E+00
  4.5000002E-02  0.0000000E+00
  4.5499999E-02  0.0000000E+00
  4.6000000E-02  0.0000000E+00
  4.6500001E-02  0.0000000E+00
  4.6999998E-02  0.0000000E+00
  4.7499999E-02  0.0000000E+00
  4.8000000E-02  0.0000000E+00
  4.8500001E-02  0.0000000E+00
  4.8999999E-02  0.0000000E+00
  4.9500000E-02  0.0000000E+00
  5.0000001E-02  0.0000000E+00
  5.0500002E-02  0.0000000E+00
  5.0999999E-02  0.0000000E+00
  5.1500000E-02  0.0000000E+00
  5.2000001E-02  0.0000000E+00
  5.2499998E-02  0.0000000E+00
  5.2999999E-02  0.0000000E+00
  5.3500000E-02  0.0000000E+00
  5.4000001E-02  0.0000000E+00
  5.4499999E-02  0.0000000E+00
  5.5000000E-02  0.0000000E+00
  5.5500001E-02  0.0000000E+00
  5.6000002E-02  0.0000000E+00
  5.6499999E-02  0.0000000E+00
  5.7000000E-02  0.0000000E+00
  5.7500001E-02  0.0000000E+00
  5.7999998E-02  0.0000000E+00
  5.8499999E-02  0.0000000E+00
  5.9000000E-02  0.0000000E+00
  5.9500001E-02  0.0000000E+00
  5.9999999E-02  0.0000000E+00
  6.0500000E-02  0.0000000E+00
  6.1000001E-02  0.0000000E+00
  6.1500002E-02  0.0000000E+00
  6.1999999E-02  0.0000000E+00
  6.2500000E-02  0.0000000E+00
  6.3000001E-02  0.0000000E+00
  6.3500002E-02  0.0000000E+00
  6.4000003E-02  0.0000000E+00
  6.4499997E-02  0.0000000E+00
  6.4999998E-02  0.0000000E+00
  6.5499999E-02  0.0000000E+00
  6.6000000E-02  0.0000000E+00
  6.6500001E-02  0.0000000E+00
  6.7000002E-02  0.0000000E+00
  6.7500003E-02  0.0000000E+00
  6.8000004E-02  0.0000000E+00
  6.8499997E-02  0.0000000E+00
  6.8999998E-02  0.0000000E+00
  6.9499999E-02  0.0000000E+00
  7.0000000E-02  0.0000000E+00
  7.0500001E-02  0.0000000E+00
  7.1000002E-02  0.0000000E+00
  7.1500003E-02  0.0000000E+00
  7.1999997E-02  0.0000000E+00
  7.2499998E-02  0.0000000E+00
  7.2999999E-02  0.0000000E+00
  7.3500000E-02  0.0000000E+00
  7.4000001E-02  0.0000000E+00
  7.4500002E-02  0.0000000E+00
  7.5000003E-02  0.0000000E+00
  7.5499997E-02  0.0000000E+00
  7.5999998E-02  0.0000000E+00
  7.6499999E-02  0.0000000E+00
  7.7000000E-02  0.0000000E+00
  7.7500001E-02  0.0000000E+00
  7.8000002E-02  0.0000000E+00
  7.8500003E-02  0.0000000E+00
  7.9000004E-02  0.0000000E+00
  7.9499997E-02  0.0000000E+00
  7.9999998E-02  0.0000000E+00
  8.0499999E-02  0.0000000E+00
  8.1000000E-02  0.0000000E+00
  8.1500001E-02  0.0000000E+00
  8.2000002E-02  0.0000000E+00
  8.2500003E-02  0.0000000E+00
  8.2999997E-02  0.0000000E+00
  8.3499998E-02  0.0000000E+00
  8.3999999E-02  0.0000000E+00
  8.4500000E-02  0.0000000E+00
  8.5000001E-02  0.0000000E+00
  8.5500002E-02  0.0000000E+00
  8.6000003E-02  0.0000000E+00
  8.6499996E-02  0.0000000E+00
  8.6999997E-02  0.0000000E+00
  8.7499999E-02  0.0000000E+00
  8.8000000E-02  0.0000000E+00
  8.8500001E-02  0.0000000E+00
  8.9000002E-02  0.0000000E+00
  8.9500003E-02  0.0000000E+00
  9.0000004E-02  0.0000000E+00
  9.0499997E-02  0.0000000E+00
  9.0999998E-02  0.0000000E+00
  9.1499999E-02  0.0000000E+00
  9.2000000E-02  0.0000000E+00
  9.2500001E-02  0.0000000E+00
  9.3000002E-02  0.0000000E+00
  9.3500003E-02  0.0000000E+00
  9.3999997E-02  0.0000000E+00
  9.4499998E-02  0.0000000E+00
  9.4999999E-02  0.0000000E+00
  9.5500000E-02  0.0000000E+00
  9.6000001E-02  0.0000000E+00
  9.6500002E-02  0.0000000E+00
  9.7000003E-02  0.0000000E+00
  9.7499996E-02  0.0000000E+00
  9.7999997E-02  0.0000000E+00
  9.8499998E-02  0.0000000E+00
  9.8999999E-02  0.0000000E+00
  9.9500000E-02  0.0000000E+00
  0.1000000      0.0000000E+00
  0.1005000      0.0000000E+00
  0.1010000      0.0000000E+00
  0.1015000      0.0000000E+00
  0.1020000      0.0000000E+00
  0.1025000      0.0000000E+00
  0.1030000      0.0000000E+00
  0.1035000      0.0000000E+00
  0.1040000      0.0000000E+00
  0.1045000      0.0000000E+00
  0.1050000      0.0000000E+00
  0.1055000      0.0000000E+00
  0.1060000      0.0000000E+00
  0.1065000      0.0000000E+00
  0.1070000      0.0000000E+00
  0.1075000      0.0000000E+00
  0.1080000      0.0000000E+00
  0.1085000      0.0000000E+00
  0.1090000      0.0000000E+00
  0.1095000      0.0000000E+00
  0.1100000      0.0000000E+00
  0.1105000      0.0000000E+00
  0.1110000      0.0000000E+00
  0.1115000      0.0000000E+00
  0.1120000      0.0000000E+00
  0.1125000      0.0000000E+00
  0.1130000      0.0000000E+00
  0.1135000      0.0000000E+00
  0.1140000      0.0000000E+00
  0.1145000      0.0000000E+00
  0.1150000      0.0000000E+00
  0.1155000      0.0000000E+00
  0.1160000      0.0000000E+00
  0.1165000      0.0000000E+00
  0.1170000      0.0000000E+00
  0.1175000      0.0000000E+00
  0.1180000      0.0000000E+00
  0.1185000      0.0000000E+00
  0.1190000      0.0000000E+00
  0.1195000      0.0000000E+00
  0.1200000      0.0000000E+00
  0.1205000      0.0000000E+00
  0.1210000      0.0000000E+00
  0.1215000      0.0000000E+00
  0.1220000      0.0000000E+00
  0.1225000      0.0000000E+00
  0.1230000      0.0000000E+00
  0.1235000      0.0000000E+00
  0.1240000      0.0000000E+00
  0.1245000      0.0000000E+00
  0.1250000      0.0000000E+00
  0.1255000      0.0000000E+00
  0.1260000      0.0000000E+00
  0.1265000      0.0000000E+00
  0.1270000      0.0000000E+00
  0.1275000      0.0000000E+00
  0.1280000      0.0000000E+00
  0.1285000      0.0000000E+00
  0.1290000      0.0000000E+00
  0.1295000      0.0000000E+00
  0.1300000      0.0000000E+00
  0.1305000      0.0000000E+00
  0.1310000      0.0000000E+00
  0.1315000      0.0000000E+00
  0.1320000      0.0000000E+00
  0.1325000      0.0000000E+00
  0.1330000      0.0000000E+00
  0.1335000      0.0000000E+00
  0.1340000      0.0000000E+00
  0.1345000      0.0000000E+00
  0.1350000      0.0000000E+00
  0.1355000      0.0000000E+00
  0.1360000      0.0000000E+00
  0.1365000      0.0000000E+00
  0.1370000      0.0000000E+00
  0.1375000      0.0000000E+00
  0.1380000      0.0000000E+00
  0.1385000      0.0000000E+00
  0.1390000      0.0000000E+00
  0.1395000      0.0000000E+00
  0.1400000      0.0000000E+00
  0.1405000      0.0000000E+00
  0.1410000      0.0000000E+00
  0.1415000      0.0000000E+00
  0.1420000      0.0000000E+00
  0.1425000      0.0000000E+00
  0.1430000      0.0000000E+00
  0.1435000      0.0000000E+00
  0.1440000      0.0000000E+00
  0.1445000      0.0000000E+00
  0.1450000      0.0000000E+00
  0.1455000      0.0000000E+00
  0.1460000      0.0000000E+00
  0.1465000      0.0000000E+00
  0.1470000      0.0000000E+00
  0.1475000      0.0000000E+00
  0.1480000      0.0000000E+00
  0.1485000      0.0000000E+00
  0.1490000      0.0000000E+00
  0.1495000      0.0000000E+00
  0.1500000      0.0000000E+00
  0.1505000      0.0000000E+00
  0.1510000      0.0000000E+00
  0.1515000      0.0000000E+00
  0.1520000      0.0000000E+00
  0.1525000      0.0000000E+00
  0.1530000      0.0000000E+00
  0.1535000      0.0000000E+00
  0.1540000      0.0000000E+00
  0.1545000      0.0000000E+00
  0.1550000      0.0000000E+00
  0.1555000      0.0000000E+00
  0.1560000      0.0000000E+00
  0.1565000      0.0000000E+00
  0.1570000      0.0000000E+00
  0.1575000      0.0000000E+00
  0.1580000      0.0000000E+00
  0.1585000      0.0000000E+00
  0.1590000      0.0000000E+00
  0.1595000      0.0000000E+00
  0.1600000      0.0000000E+00
  0.1605000      0.0000000E+00
  0.1610000      0.0000000E+00
  0.1615000      0.0000000E+00
  0.1620000      0.0000000E+00
  0.1625000      0.0000000E+00
  0.1630000      0.0000000E+00
  0.1635000      0.0000000E+00
  0.1640000      0.0000000E+00
  0.1645000      0.0000000E+00
  0.1650000      0.0000000E+00
  0.1655000      0.0000000E+00
  0.1660000      0.0000000E+00
  0.1665000      0.0000000E+00
  0.1670000      0.0000000E+00
  0.1675000      0.0000000E+00
  0.1680000      0.0000000E+00
  0.1685000      0.0000000E+00
  0.1690000      0.0000000E+00
  0.1695000      0.0000000E+00
  0.1700000      0.0000000E+00
  0.1705000      0.0000000E+00
  0.1710000      0.0000000E+00
  0.1715000      0.0000000E+00
  0.1720000      0.0000000E+00
  0.1725000      0.0000000E+00
  0.1730000      0.0000000E+00
  0.1735000      0.0000000E+00
  0.1740000      0.0000000E+00
  0.1745000      0.0000000E+00
  0.1750000      0.0000000E+00
  0.1755000      0.0000000E+00
  0.1760000      0.0000000E+00
  0.1765000      0.0000000E+00
  0.1770000      0.0000000E+00
  0.1775000      0.0000000E+00
  0.1780000      0.0000000E+00
  0.1785000      0.0000000E+00
  0.1790000      0.0000000E+00
  0.1795000      0.0000000E+00
  0.1800000      0.0000000E+00
  0.1805000      0.0000000E+00
  0.1810000      0.0000000E+00
  0.1815000      0.0000000E+00
  0.1820000      0.0000000E+00
  0.1825000      0.0000000E+00
  0.1830000      0.0000000E+00
  0.1835000      0.0000000E+00
  0.1840000      0.0000000E+00
  0.1845000      0.0000000E+00
  0.1850000      0.0000000E+00
  0.1855000      0.0000000E+00
  0.1860000      0.0000000E+00
  0.1865000      0.0000000E+00
  0.1870000      0.0000000E+00
  0.1875000      0.0000000E+00
  0.1880000      0.0000000E+00
  0.1885000      0.0000000E+00
  0.1890000      0.0000000E+00
  0.1895000      0.0000000E+00
  0.1900000      0.0000000E+00
  0.1905000      0.0000000E+00
  0.1910000      0.0000000E+00
  0.1915000      0.0000000E+00
  0.1920000      0.0000000E+00
  0.1925000      0.0000000E+00
  0.1930000      0.0000000E+00
  0.1935000      0.0000000E+00
  0.1940000      0.0000000E+00
  0.1945000      0.0000000E+00
  0.1950000      0.0000000E+00
  0.1955000      0.0000000E+00
  0.1960000      0.0000000E+00
  0.1965000      0.0000000E+00
  0.1970000      0.0000000E+00
  0.1975000      0.0000000E+00
  0.1980000      0.0000000E+00
  0.1985000      0.0000000E+00
  0.1990000      0.0000000E+00
  0.1995000      0.0000000E+00
  0.2000000      0.0000000E+00
  0.2005000      0.0000000E+00
  0.2010000      0.0000000E+00
  0.2015000      0.0000000E+00
  0.2020000      0.0000000E+00
  0.2025000      0.0000000E+00
  0.2030000      0.0000000E+00
  0.2035000      0.0000000E+00
  0.2040000      0.0000000E+00
  0.2045000      0.0000000E+00
  0.2050000      0.0000000E+00
  0.2055000      0.0000000E+00
  0.2060000      0.0000000E+00
  0.2065000      0.0000000E+00
  0.2070000      0.0000000E+00
  0.2075000      0.0000000E+00
  0.2080000      0.0000000E+00
  0.2085000      0.0000000E+00
  0.2090000      0.0000000E+00
  0.2095000      0.0000000E+00
  0.2100000      0.0000000E+00
  0.2105000      0.0000000E+00
  0.2110000      0.0000000E+00
  0.2115000      0.0000000E+00
  0.2120000      0.0000000E+00
  0.2125000      0.0000000E+00
  0.2130000      0.0000000E+00
  0.2135000      0.0000000E+00
  0.2140000      0.0000000E+00
  0.2145000      0.0000000E+00
  0.2150000      0.0000000E+00
  0.2155000      0.0000000E+00
  0.2160000      0.0000000E+00
  0.2165000      0.0000000E+00
  0.2170000      0.0000000E+00
  0.2175000      0.0000000E+00
  0.2180000      0.0000000E+00
  0.2185000      0.0000000E+00
  0.2190000      0.0000000E+00
  0.2195000      0.0000000E+00
  0.2200000      0.0000000E+00
  0.2205000      0.0000000E+00
  0.2210000      0.0000000E+00
  0.2215000      0.0000000E+00
  0.2220000      0.0000000E+00
  0.2225000      0.0000000E+00
  0.2230000      0.0000000E+00
  0.2235000      0.0000000E+00
  0.2240000      0.0000000E+00
  0.2245000      0.0000000E+00
  0.2250000      0.0000000E+00
  0.2255000      0.0000000E+00
  0.2260000      0.0000000E+00
  0.2265000      0.0000000E+00
  0.2270000      0.0000000E+00
  0.2275000      0.0000000E+00
  0.2280000      0.0000000E+00
  0.2285000      0.0000000E+00
  0.2290000      0.0000000E+00
  0.2295000      0.0000000E+00
  0.2300000      0.0000000E+00
  0.2305000      0.0000000E+00
  0.2310000      0.0000000E+00
  0.2315000      0.0000000E+00
  0.2320000      0.0000000E+00
  0.2325000      0.0000000E+00
  0.2330000      0.0000000E+00
  0.2335000      0.0000000E+00
  0.2340000      0.0000000E+00
  0.2345000      0.0000000E+00
  0.2350000      0.0000000E+00
  0.2355000      0.0000000E+00
  0.2360000      0.0000000E+00
  0.2365000      0.0000000E+00
  0.2370000      0.0000000E+00
  0.2375000      0.0000000E+00
  0.2380000      0.0000000E+00
  0.2385000      0.0000000E+00
  0.2390000      0.0000000E+00
  0.2395000      0.0000000E+00
  0.2400000      0.0000000E+00
  0.2405000      0.0000000E+00
  0.2410000      0.0000000E+00
  0.2415000      0.0000000E+00
  0.2420000      0.0000000E+00
  0.2425000      0.0000000E+00
  0.2430000      0.0000000E+00
  0.2435000      0.0000000E+00
  0.2440000      0.0000000E+00
  0.2445000      0.0000000E+00
  0.2450000      0.0000000E+00
  0.2455000      0.0000000E+00
  0.2460000      0.0000000E+00
  0.2465000      0.0000000E+00
  0.2470000      0.0000000E+00
  0.2475000      0.0000000E+00
  0.2480000      0.0000000E+00
  0.2485000      0.0000000E+00
  0.2490000      0.0000000E+00
  0.2495000      0.0000000E+00
  0.2500000      0.0000000E+00
  0.2505000      0.0000000E+00
  0.2510000      0.0000000E+00
  0.2515000      0.0000000E+00
  0.2520000      0.0000000E+00
  0.2525000      0.0000000E+00
  0.2530000      0.0000000E+00
  0.2535000      0.0000000E+00
  0.2540000      0.0000000E+00
  0.2545000      0.0000000E+00
  0.2550000      0.0000000E+00
  0.2555000      0.0000000E+00
  0.2560000      0.0000000E+00
  0.2565000      0.0000000E+00
  0.2570000      0.0000000E+00
  0.2575000      0.0000000E+00
  0.2580000      0.0000000E+00
  0.2585000      0.0000000E+00
  0.2590000      0.0000000E+00
  0.2595000      0.0000000E+00
  0.2600000      0.0000000E+00
  0.2605000      0.0000000E+00
  0.2610000      0.0000000E+00
  0.2615000      0.0000000E+00
  0.2620000      0.0000000E+00
  0.2625000      0.0000000E+00
  0.2630000      0.0000000E+00
  0.2635000      0.0000000E+00
  0.2640000      0.0000000E+00
  0.2645000      0.0000000E+00
  0.2650000      0.0000000E+00
  0.2655000      0.0000000E+00
  0.2660000      0.0000000E+00
  0.2665000      0.0000000E+00
  0.2670000      0.0000000E+00
  0.2675000      0.0000000E+00
  0.2680000      0.0000000E+00
  0.2685000      0.0000000E+00
  0.2690000      0.0000000E+00
  0.2695000      0.0000000E+00
  0.2700000      0.0000000E+00
  0.2705000      0.0000000E+00
  0.2710000      0.0000000E+00
  0.2715000      0.0000000E+00
  0.2720000      0.0000000E+00
  0.2725000      0.0000000E+00
  0.2730000     -2.3542212E-38
  0.2735000     -6.5895606E-38
  0.2740000     -1.4416661E-37
  0.2745000     -2.0744408E-37
  0.2750000     -2.3892906E-37
  0.2755000     -2.4761657E-37
  0.2760000     -2.3978492E-37
  0.2765000     -2.0882764E-37
  0.2770000     -1.4047369E-37
  0.2775000     -5.1301094E-38
  0.2780000      4.7592619E-38
  0.2785000      1.4287843E-37
  0.2790000      2.2258570E-37
  0.2795000      2.8855809E-37
  0.2800000      3.1144347E-37
  0.2805000      2.7405129E-37
  0.2810000      1.9592726E-37
  0.2815000      8.3613490E-38
  0.2820000     -5.2556870E-38
  0.2825000     -2.0548941E-37
  0.2830000     -3.7087108E-37
  0.2835000     -3.4526683E-37
  0.2840000     -1.1923267E-37
  0.2845000      1.0776224E-36
  0.2850000      3.1113762E-36
  0.2855000      4.2806767E-36
  0.2860000      4.8947505E-36
  0.2865000      5.3865074E-36
  0.2870000      4.6802113E-36
  0.2875000      3.9539446E-36
  0.2880000      3.3333864E-36
  0.2885000      1.4089407E-36
  0.2890000     -1.1881051E-36
  0.2895000     -3.5685670E-36
  0.2900000     -5.7989144E-36
  0.2905000     -8.1648823E-36
  0.2910000     -9.9031345E-36
  0.2915000     -1.0795443E-35
  0.2920000     -1.1331254E-35
  0.2925000     -1.0439796E-35
  0.2930000     -7.7012946E-36
  0.2935000     -3.7998160E-36
  0.2940000      1.1652645E-36
  0.2945000      6.8373966E-36
  0.2950000      1.2747202E-35
  0.2955000      1.8285093E-35
  0.2960000      1.9728318E-35
  0.2965000      1.3790265E-35
  0.2970000      5.3152246E-37
  0.2975000     -1.7274327E-35
  0.2980000     -3.4035268E-35
  0.2985000     -4.5342209E-35
  0.2990000     -4.7329171E-35
  0.2995000     -3.7617300E-35
  0.3000000     -1.6243056E-35
  0.3005000      1.4749422E-35
  0.3010000      5.0563436E-35
  0.3015000      8.5702951E-35
  0.3020000      1.1468473E-34
  0.3025000      1.3259769E-34
  0.3030000      1.3649330E-34
  0.3035000      1.2640055E-34
  0.3040000      1.0351643E-34
  0.3045000      7.0335331E-35
  0.3050000      3.1374817E-35
  0.3055000     -8.4326631E-36
  0.3060000     -4.4281650E-35
  0.3065000     -7.3558872E-35
  0.3070000     -9.5798158E-35
  0.3075000     -1.1251325E-34
  0.3080000     -1.2678060E-34
  0.3085000     -1.4235169E-34
  0.3090000     -1.6249762E-34
  0.3095000     -1.8875354E-34
  0.3100000     -2.2058758E-34
  0.3105000     -2.5526549E-34
  0.3110000     -2.8797660E-34
  0.3115000     -3.1248635E-34
  0.3120000     -3.2231357E-34
  0.3125000     -3.1170956E-34
  0.3130000     -2.7682894E-34
  0.3135000     -2.1657625E-34
  0.3140000     -1.3261702E-34
  0.3145000     -2.9110265E-35
  0.3150000      8.7973211E-35
  0.3155000      2.1226730E-34
  0.3160000      3.3707268E-34
  0.3165000      4.5650553E-34
  0.3170000      5.6695452E-34
  0.3175000      6.6645722E-34
  0.3180000      7.5446056E-34
  0.3185000      8.3085759E-34
  0.3190000      8.9571062E-34
  0.3195000      9.4787208E-34
  0.3200000      9.8380584E-34
  0.3205000      9.9812630E-34
  0.3210000      9.8370969E-34
  0.3215000      9.3248854E-34
  0.3220000      8.3647508E-34
  0.3225000      6.8979276E-34
  0.3230000      4.8879323E-34
  0.3235000      2.3307057E-34
  0.3240000     -7.3225027E-35
  0.3245000     -4.2238979E-34
  0.3250000     -8.0341779E-34
  0.3255000     -1.2028159E-33
  0.3260000     -1.6058313E-33
  0.3265000     -1.9975699E-33
  0.3270000     -2.3637952E-33
  0.3275000     -2.6913536E-33
  0.3280000     -2.9682887E-33
  0.3285000     -3.1836725E-33
  0.3290000     -3.3271666E-33
  0.3295000     -3.3882416E-33
  0.3300000     -3.3557730E-33
  0.3305000     -3.2183768E-33
  0.3310000     -2.9647003E-33
  0.3315000     -2.5842417E-33
  0.3320000     -2.0686138E-33
  0.3325000     -1.4130417E-33
  0.3330000     -6.1783180E-34
  0.3335000      3.1033069E-34
  0.3340000      1.3575068E-33
  0.3345000      2.5022080E-33
  0.3350000      3.7157615E-33
  0.3355000      4.9631565E-33
  0.3360000      6.2043488E-33
  0.3365000      7.3959107E-33
  0.3370000      8.4926462E-33
  0.3375000      9.4490798E-33
  0.3380000      1.0220602E-32
  0.3385000      1.0764409E-32
  0.3390000      1.1040129E-32
  0.3395000      1.1010418E-32
  0.3400000      1.0641624E-32
  0.3405000      9.9046353E-33
  0.3410000      8.7762173E-33
  0.3415000      7.2407491E-33
  0.3420000      5.2923481E-33
  0.3425000      2.9371912E-33
  0.3430000      1.9571935E-34
  0.3435000     -2.8955497E-33
  0.3440000     -6.2828402E-33
  0.3445000     -9.8948868E-33
  0.3450000     -1.3643723E-32
  0.3455000     -1.7426536E-32
  0.3460000     -2.1128231E-32
  0.3465000     -2.4624648E-32
  0.3470000     -2.7786238E-32
  0.3475000     -3.0481691E-32
  0.3480000     -3.2581515E-32
  0.3485000     -3.3961375E-32
  0.3490000     -3.4505270E-32
  0.3495000     -3.4108570E-32
  0.3500000     -3.2681056E-32
  0.3505000     -3.0150202E-32
  0.3510000     -2.6464692E-32
  0.3515000     -2.1598200E-32
  0.3520000     -1.5553255E-32
  0.3525000     -8.3651029E-33
  0.3530000     -1.0505851E-34
  0.3535000      9.1168660E-33
  0.3540000      1.9150391E-32
  0.3545000      2.9804844E-32
  0.3550000      4.0850565E-32
  0.3555000      5.2021814E-32
  0.3560000      6.3021109E-32
  0.3565000      7.3524780E-32
  0.3570000      8.3189682E-32
  0.3575000      9.1660536E-32
  0.3580000      9.8577808E-32
  0.3585000      1.0358602E-31
  0.3590000      1.0634241E-31
  0.3595000      1.0652590E-31
  0.3600000      1.0384643E-31
  0.3605000      9.8054766E-32
  0.3610000      8.8952714E-32
  0.3615000      7.6403530E-32
  0.3620000      6.0342539E-32
  0.3625000      4.0787444E-32
  0.3630000      1.7847985E-32
  0.3635000     -8.2656524E-33
  0.3640000     -3.7235976E-32
  0.3645000     -6.8633536E-32
  0.3650000     -1.0191501E-31
  0.3655000     -1.3642410E-31
  0.3660000     -1.7139558E-31
  0.3665000     -2.0596241E-31
  0.3670000     -2.3916629E-31
  0.3675000     -2.6997132E-31
  0.3680000     -2.9728083E-31
  0.3685000     -3.1995743E-31
  0.3690000     -3.3684618E-31
  0.3695000     -3.4680095E-31
  0.3700000     -3.4871393E-31
  0.3705000     -3.4154835E-31
  0.3710000     -3.2437416E-31
  0.3715000     -2.9640628E-31
  0.3720000     -2.5704462E-31
  0.3725000     -2.0591532E-31
  0.3730000     -1.4291225E-31
  0.3735000     -6.8236419E-32
  0.3740000      1.7567070E-32
  0.3745000      1.1357698E-31
  0.3750000      2.1847068E-31
  0.3755000      3.3050674E-31
  0.3760000      4.4751742E-31
  0.3765000      5.6691309E-31
  0.3770000      6.8569886E-31
  0.3775000      8.0050545E-31
  0.3780000      9.0763549E-31
  0.3785000      1.0031251E-30
  0.3790000      1.0828219E-30
  0.3795000      1.1424791E-30
  0.3800000      1.1778670E-30
  0.3805000      1.1848969E-30
  0.3810000      1.1597626E-30
  0.3815000      1.0990896E-30
  0.3820000      1.0000949E-30
  0.3825000      8.6075047E-31
  0.3830000      6.7994548E-31
  0.3835000      4.5764365E-31
  0.3840000      1.9502774E-31
  0.3845000     -1.0537517E-31
  0.3850000     -4.3959309E-31
  0.3855000     -8.0214183E-31
  0.3860000     -1.1859962E-30
  0.3865000     -1.5826077E-30
  0.3870000     -1.9819709E-30
  0.3875000     -2.3727457E-30
  0.3880000     -2.7424383E-30
  0.3885000     -3.0776406E-30
  0.3890000     -3.3643307E-30
  0.3895000     -3.5882302E-30
  0.3900000     -3.7352147E-30
  0.3905000     -3.7917735E-30
  0.3910000     -3.7455053E-30
  0.3915000     -3.5856418E-30
  0.3920000     -3.3035860E-30
  0.3925000     -2.8934425E-30
  0.3930000     -2.3525308E-30
  0.3935000     -1.6818539E-30
  0.3940000     -8.8650696E-31
  0.3945000      2.3999743E-32
  0.3950000      1.0355208E-30
  0.3955000      2.1291827E-30
  0.3960000      3.2814329E-30
  0.3965000      4.4642450E-30
  0.3970000      5.6454961E-30
  0.3975000      6.7895207E-30
  0.3980000      7.8578416E-30
  0.3985000      8.8100740E-30
  0.3990000      9.6050016E-30
  0.3995000      1.0201789E-29
  0.4000000      1.0561325E-29
  0.4005000      1.0647656E-29
  0.4010000      1.0429473E-29
  0.4015000      9.8816125E-30
  0.4020000      8.9865208E-30
  0.4025000      7.7356233E-30
  0.4030000      6.1305495E-30
  0.4035000      4.1841565E-30
  0.4040000      1.9212942E-30
  0.4045000     -6.2075115E-31
  0.4050000     -3.3921637E-30
  0.4055000     -6.3309116E-30
  0.4060000     -9.3634945E-30
  0.4065000     -1.2406140E-29
  0.4070000     -1.5366473E-29
  0.4075000     -1.8145629E-29
  0.4080000     -2.0640786E-29
  0.4085000     -2.2748093E-29
  0.4090000     -2.4365925E-29
  0.4095000     -2.5398376E-29
  0.4100000     -2.5758904E-29
  0.4105000     -2.5374055E-29
  0.4110000     -2.4187080E-29
  0.4115000     -2.2161387E-29
  0.4120000     -1.9283640E-29
  0.4125000     -1.5566389E-29
  0.4130000     -1.1050116E-29
  0.4135000     -5.8045290E-30
  0.4140000      7.0950370E-32
  0.4145000      6.4476727E-30
  0.4150000      1.3169246E-29
  0.4155000      2.0054045E-29
  0.4160000      2.6898823E-29
  0.4165000      3.3483357E-29
  0.4170000      3.9576070E-29
  0.4175000      4.4940537E-29
  0.4180000      4.9342749E-29
  0.4185000      5.2558965E-29
  0.4190000      5.4383916E-29
  0.4195000      5.4639144E-29
  0.4200000      5.3181203E-29
  0.4205000      4.9909430E-29
  0.4210000      4.4772996E-29
  0.4215000      3.7776980E-29
  0.4220000      2.8987084E-29
  0.4225000      1.8532812E-29
  0.4230000      6.6088504E-30
  0.4235000     -6.5255652E-30
  0.4240000     -2.0549456E-29
  0.4245000     -3.5085123E-29
  0.4250000     -4.9705471E-29
  0.4255000     -6.3943456E-29
  0.4260000     -7.7303716E-29
  0.4265000     -8.9276067E-29
  0.4270000     -9.9350583E-29
  0.4275000     -1.0703386E-28
  0.4280000     -1.1186618E-28
  0.4285000     -1.1343891E-28
  0.4290000     -1.1141173E-28
  0.4295000     -1.0552915E-28
  0.4300000     -9.5635632E-29
  0.4305000     -8.1688680E-29
  0.4310000     -6.3769635E-29
  0.4315000     -4.2091292E-29
  0.4320000     -1.7002159E-29
  0.4325000      1.1013138E-29
  0.4330000      4.1337634E-29
  0.4335000      7.3230001E-29
  0.4340000      1.0583701E-28
  0.4345000      1.3821015E-28
  0.4350000      1.6932624E-28
  0.4355000      1.9811188E-28
  0.4360000      2.2347109E-28
  0.4365000      2.4431553E-28
  0.4370000      2.5959648E-28
  0.4375000      2.6833801E-28
  0.4380000      2.6967030E-28
  0.4385000      2.6286216E-28
  0.4390000      2.4735180E-28
  0.4395000      2.2277506E-28
  0.4400000      1.8899005E-28
  0.4405000      1.4609710E-28
  0.4410000      9.4453996E-29
  0.4415000      3.4685177E-29
  0.4420000     -3.2315464E-29
  0.4425000     -1.0538816E-28
  0.4430000     -1.8311773E-28
  0.4435000     -2.6385086E-28
  0.4440000     -3.4572007E-28
  0.4445000     -4.2667394E-28
  0.4450000     -5.0451280E-28
  0.4455000     -5.7693037E-28
  0.4460000     -6.4155866E-28
  0.4465000     -6.9601750E-28
  0.4470000     -7.3796618E-28
  0.4475000     -7.6515694E-28
  0.4480000     -7.7548922E-28
  0.4485000     -7.6706419E-28
  0.4490000     -7.3823803E-28
  0.4495000     -6.8767361E-28
  0.4500000     -6.1438976E-28
  0.4505000     -5.1780755E-28
  0.4510000     -3.9779296E-28
  0.4515000     -2.5469518E-28
  0.4520000     -8.9380772E-29
  0.4525000      9.6737896E-29
  0.4530000      3.0167839E-28
  0.4535000      5.2287154E-28
  0.4540000      7.5715042E-28
  0.4545000      1.0007464E-27
  0.4550000      1.2492944E-27
  0.4555000      1.4978465E-27
  0.4560000      1.7408964E-27
  0.4565000      1.9724161E-27
  0.4570000      2.1859051E-27
  0.4575000      2.3744551E-27
  0.4580000      2.5308339E-27
  0.4585000      2.6475849E-27
  0.4590000      2.7171493E-27
  0.4595000      2.7320098E-27
  0.4600000      2.6848569E-27
  0.4605000      2.5687788E-27
  0.4610000      2.3774740E-27
  0.4615000      2.1054869E-27
  0.4620000      1.7484609E-27
  0.4625000      1.3034113E-27
  0.4630000      7.6900726E-28
  0.4635000      1.4585826E-28
  0.4640000     -5.6319974E-28
  0.4645000     -1.3528299E-27
  0.4650000     -2.2149454E-27
  0.4655000     -3.1384889E-27
  0.4660000     -4.1092627E-27
  0.4665000     -5.1098203E-27
  0.4670000     -6.1194298E-27
  0.4675000     -7.1141256E-27
  0.4680000     -8.0668639E-27
  0.4685000     -8.9477935E-27
  0.4690000     -9.7246474E-27
  0.4695000     -1.0363270E-26
  0.4700000     -1.0828284E-26
  0.4705000     -1.1083886E-26
  0.4710000     -1.1094789E-26
  0.4715000     -1.0827284E-26
  0.4720000     -1.0250413E-26
  0.4725000     -9.3372358E-27
  0.4730000     -8.0661636E-27
  0.4735000     -6.4223231E-27
  0.4740000     -4.3989249E-27
  0.4745000     -1.9985801E-27
  0.4750000      7.6547776E-28
  0.4755000      3.8683104E-27
  0.4760000      7.2723916E-27
  0.4765000      1.0926977E-26
  0.4770000      1.4767780E-26
  0.4775000      1.8717004E-26
  0.4780000      2.2683780E-26
  0.4785000      2.6565042E-26
  0.4790000      3.0246884E-26
  0.4795000      3.3606387E-26
  0.4800000      3.6513986E-26
  0.4805000      3.8836297E-26
  0.4810000      4.0439414E-26
  0.4815000      4.1192637E-26
  0.4820000      4.0972570E-26
  0.4825000      3.9667504E-26
  0.4830000      3.7181957E-26