  0.0000000E+00  0.0000000E+00
  5.0000002E-04  0.0000000E+00
  1.0000000E-03  0.0000000E+00
  1.5000000E-03  0.0000000E+00
  2.0000001E-03  0.0000000E+00
  2.4999999E-03  0.0000000E+00
  3.0000000E-03  0.0000000E+00
  3.5000001E-03  0.0000000E+00
  4.0000002E-03  0.0000000E+00
  4.4999998E-03  0.0000000E+00
  4.9999999E-03  0.0000000E+00
  5.5000000E-03  0.0000000E+00
  6.0000001E-03  0.0000000E+00
  6.5000001E-03  0.0000000E+00
  7.0000002E-03  0.0000000E+00
  7.4999998E-03  0.0000000E+00
  8.0000004E-03  0.0000000E+00
  8.5000005E-03  0.0000000E+00
  8.9999996E-03  0.0000000E+00
  9.4999997E-03  0.0000000E+00
  9.9999998E-03  0.0000000E+00
  1.0500000E-02  0.0000000E+00
  1.1000000E-02  0.0000000E+00
  1.1500000E-02  0.0000000E+00
  1.2000000E-02  0.0000000E+00
  1.2500000E-02  0.0000000E+00
  1.3000000E-02  0.0000000E+00
  1.3500000E-02  0.0000000E+00
  1.4000000E-02  0.0000000E+00
  1.4500000E-02  0.0000000E+00
  1.5000000E-02  0.0000000E+00
  1.5500000E-02  0.0000000E+00
  1.6000001E-02  0.0000000E+00
  1.6500000E-02  0.0000000E+00
  1.7000001E-02  0.0000000E+00
  1.7500000E-02  0.0000000E+00
  1.7999999E-02  0.0000000E+00
  1.8500000E-02  0.0000000E+00
  1.8999999E-02  0.0000000E+00
  1.9500000E-02  0.0000000E+00
  2.0000000E-02  0.0000000E+00
  2.0500001E-02  0.0000000E+00
  2.1000000E-02  0.0000000E+00
  2.1500001E-02  0.0000000E+00
  2.2000000E-02  0.0000000E+00
  2.2500001E-02  0.0000000E+00
  2.3000000E-02  0.0000000E+00
  2.3499999E-02  0.0000000E+00
  2.4000000E-02  0.0000000E+00
  2.4499999E-02  0.0000000E+00
  2.5000000E-02  0.0000000E+00
  2.5500000E-02  0.0000000E+00
  2.6000001E-02  0.0000000E+00
  2.6500000E-02  0.0000000E+00
  2.7000001E-02  0.0000000E+00
  2.7500000E-02  0.0000000E+00
  2.8000001E-02  0.0000000E+00
  2.8500000E-02  0.0000000E+00
  2.8999999E-02  0.0000000E+00
  2.9500000E-02  0.0000000E+00
  2.9999999E-02  0.0000000E+00
  3.0500000E-02  0.0000000E+00
  3.0999999E-02  0.0000000E+00
  3.1500001E-02  0.0000000E+00
  3.2000002E-02  0.0000000E+00
  3.2499999E-02  0.0000000E+00
  3.3000000E-02  0.0000000E+00
  3.3500001E-02  0.0000000E+00
  3.4000002E-02  0.0000000E+00
  3.4499999E-02  0.0000000E+00
  3.5000000E-02  0.0000000E+00
  3.5500001E-02  0.0000000E+00
  3.5999998E-02  0.0000000E+00
  3.6499999E-02  0.0000000E+00
  3.7000000E-02  0.0000000E+00
  3.7500001E-02  0.0000000E+00
  3.7999999E-02  0.0000000E+00
  3.8500000E-02  0.0000000E+00
  3.9000001E-02  0.0000000E+00
  3.9500002E-02  0.0000000E+00
  3.9999999E-02  0.0000000E+00
  4.0500000E-02  0.0000000E+00
  4.1000001E-02  0.0000000E+00
  4.1499998E-02  0.0000000E+00
  4.1999999E-02  0.0000000E+00
  4.2500000E-02  0.0000000E+00
  4.3000001E-02  0.0000000E+00
  4.3499999E-02  0.0000000E+00
  4.4000000E-02  0.0000000E+00
  4.4500001E-02  0.0000000E+00
  4.5000002E-02  0.0000000E+00
  4.5499999E-02  0.0000000E+00
  4.6000000E-02  0.0000000E+00
  4.6500001E-02  0.0000000E+00
  4.6999998E-02  0.0000000E+00
  4.7499999E-02  0.0000000E+00
  4.8000000E-02  0.0000000E+00
  4.8500001E-02  0.0000000E+00
  4.8999999E-02  0.0000000E+00
  4.9500000E-02  0.0000000E+00
  5.0000001E-02  0.0000000E+00
  5.0500002E-02  0.0000000E+00
  5.0999999E-02  0.0000000E+00
  5.1500000E-02  0.0000000E+00
  5.2000001E-02  0.0000000E+00
  5.2499998E-02  0.0000000E+00
  5.2999999E-02  0.0000000E+00
  5.3500000E-02  0.0000000E+00
  5.4000001E-02  0.0000000E+00
  5.4499999E-02  0.0000000E+00
  5.5000000E-02  0.0000000E+00
  5.5500001E-02  0.0000000E+00
  5.6000002E-02  0.0000000E+00
  5.6499999E-02  0.0000000E+00
  5.7000000E-02  0.0000000E+00
  5.7500001E-02  0.0000000E+00
  5.7999998E-02  0.0000000E+00
  5.8499999E-02  0.0000000E+00
  5.9000000E-02  0.0000000E+00
  5.9500001E-02  0.0000000E+00
  5.9999999E-02  0.0000000E+00
  6.0500000E-02  0.0000000E+00
  6.1000001E-02  0.0000000E+00
  6.1500002E-02  0.0000000E+00
  6.1999999E-02  0.0000000E+00
  6.2500000E-02  0.0000000E+00
  6.3000001E-02  0.0000000E+00
  6.3500002E-02  0.0000000E+00
  6.4000003E-02  0.0000000E+00
  6.4499997E-02  0.0000000E+00
  6.4999998E-02  0.0000000E+00
  6.5499999E-02  0.0000000E+00
  6.6000000E-02  0.0000000E+00
  6.6500001E-02  0.0000000E+00
  6.7000002E-02  0.0000000E+00
  6.7500003E-02  0.0000000E+00
  6.8000004E-02  0.0000000E+00
  6.8499997E-02  0.0000000E+00
  6.8999998E-02  0.0000000E+00
  6.9499999E-02  0.0000000E+00
  7.0000000E-02  0.0000000E+00
  7.0500001E-02  0.0000000E+00
  7.1000002E-02  0.0000000E+00
  7.1500003E-02  0.0000000E+00
  7.1999997E-02  0.0000000E+00
  7.2499998E-02  0.0000000E+00
  7.2999999E-02  0.0000000E+00
  7.3500000E-02  0.0000000E+00
  7.4000001E-02  0.0000000E+00
  7.4500002E-02  0.0000000E+00
  7.5000003E-02  0.0000000E+00
  7.5499997E-02  0.0000000E+00
  7.5999998E-02  0.0000000E+00
  7.6499999E-02  0.0000000E+00
  7.7000000E-02  0.0000000E+00
  7.7500001E-02  0.0000000E+00
  7.8000002E-02  0.0000000E+00
  7.8500003E-02  0.0000000E+00
  7.9000004E-02  0.0000000E+00
  7.9499997E-02  0.0000000E+00
  7.9999998E-02  0.0000000E+00
  8.0499999E-02  0.0000000E+00
  8.1000000E-02  0.0000000E+00
  8.1500001E-02  0.0000000E+00
  8.2000002E-02  0.0000000E+00
  8.2500003E-02  0.0000000E+00
  8.2999997E-02  0.0000000E+00
  8.3499998E-02  0.0000000E+00
  8.3999999E-02  0.0000000E+00
  8.4500000E-02  0.0000000E+00
  8.5000001E-02  0.0000000E+00
  8.5500002E-02  0.0000000E+00
  8.6000003E-02  0.0000000E+00
  8.6499996E-02  0.0000000E+00
  8.6999997E-02  0.0000000E+00
  8.7499999E-02  0.0000000E+00
  8.8000000E-02  0.0000000E+00
  8.8500001E-02  0.0000000E+00
  8.9000002E-02  0.0000000E+00
  8.9500003E-02  0.0000000E+00
  9.0000004E-02  0.0000000E+00
  9.0499997E-02  0.0000000E+00
  9.0999998E-02  0.0000000E+00
  9.1499999E-02  0.0000000E+00
  9.2000000E-02  0.0000000E+00
  9.2500001E-02  0.0000000E+00
  9.3000002E-02  0.0000000E+00
  9.3500003E-02  0.0000000E+00
  9.3999997E-02  0.0000000E+00
  9.4499998E-02  0.0000000E+00
  9.4999999E-02  0.0000000E+00
  9.5500000E-02  0.0000000E+00
  9.6000001E-02  0.0000000E+00
  9.6500002E-02  0.0000000E+00
  9.7000003E-02  0.0000000E+00
  9.7499996E-02  0.0000000E+00
  9.7999997E-02  0.0000000E+00
  9.8499998E-02  0.0000000E+00
  9.8999999E-02  0.0000000E+00
  9.9500000E-02  0.0000000E+00
  0.1000000      0.0000000E+00
  0.1005000      0.0000000E+00
  0.1010000      0.0000000E+00
  0.1015000      0.0000000E+00
  0.1020000      0.0000000E+00
  0.1025000      0.0000000E+00
  0.1030000      0.0000000E+00
  0.1035000      0.0000000E+00
  0.1040000      0.0000000E+00
  0.1045000      0.0000000E+00
  0.1050000      0.0000000E+00
  0.1055000      0.0000000E+00
  0.1060000      0.0000000E+00
  0.1065000      0.0000000E+00
  0.1070000      0.0000000E+00
  0.1075000      0.0000000E+00
  0.1080000      0.0000000E+00
  0.1085000      0.0000000E+00
  0.1090000      0.0000000E+00
  0.1095000      0.0000000E+00
  0.1100000      0.0000000E+00
  0.1105000      0.0000000E+00
  0.1110000      0.0000000E+00
  0.1115000      0.0000000E+00
  0.1120000      0.0000000E+00
  0.1125000      0.0000000E+00
  0.1130000      0.0000000E+00
  0.1135000      0.0000000E+00
  0.1140000      0.0000000E+00
  0.1145000      0.0000000E+00
  0.1150000      0.0000000E+00
  0.1155000      0.0000000E+00
  0.1160000      0.0000000E+00
  0.1165000      0.0000000E+00
  0.1170000      0.0000000E+00
  0.1175000      0.0000000E+00
  0.1180000      0.0000000E+00
  0.1185000      0.0000000E+00
  0.1190000      0.0000000E+00
  0.1195000      0.0000000E+00
  0.1200000      0.0000000E+00
  0.1205000      0.0000000E+00
  0.1210000      0.0000000E+00
  0.1215000      0.0000000E+00
  0.1220000      0.0000000E+00
  0.1225000      0.0000000E+00
  0.1230000      0.0000000E+00
  0.1235000      0.0000000E+00
  0.1240000      0.0000000E+00
  0.1245000      0.0000000E+00
  0.1250000      0.0000000E+00
  0.1255000      0.0000000E+00
  0.1260000      0.0000000E+00
  0.1265000      0.0000000E+00
  0.1270000      0.0000000E+00
  0.1275000      0.0000000E+00
  0.1280000      0.0000000E+00
  0.1285000      0.0000000E+00
  0.1290000      0.0000000E+00
  0.1295000      0.0000000E+00
  0.1300000      0.0000000E+00
  0.1305000      0.0000000E+00
  0.1310000      0.0000000E+00
  0.1315000      0.0000000E+00
  0.1320000      0.0000000E+00
  0.1325000      0.0000000E+00
  0.1330000      0.0000000E+00
  0.1335000      0.0000000E+00
  0.1340000      0.0000000E+00
  0.1345000      0.0000000E+00
  0.1350000      0.0000000E+00
  0.1355000      0.0000000E+00
  0.1360000      0.0000000E+00
  0.1365000      0.0000000E+00
  0.1370000      0.0000000E+00
  0.1375000      0.0000000E+00
  0.1380000      0.0000000E+00
  0.1385000      0.0000000E+00
  0.1390000      0.0000000E+00
  0.1395000      0.0000000E+00
  0.1400000      0.0000000E+00
  0.1405000      0.0000000E+00
  0.1410000      0.0000000E+00
  0.1415000      0.0000000E+00
  0.1420000      0.0000000E+00
  0.1425000      0.0000000E+00
  0.1430000      0.0000000E+00
  0.1435000      0.0000000E+00
  0.1440000      0.0000000E+00
  0.1445000      0.0000000E+00
  0.1450000      0.0000000E+00
  0.1455000      0.0000000E+00
  0.1460000      0.0000000E+00
  0.1465000      0.0000000E+00
  0.1470000      0.0000000E+00
  0.1475000      0.0000000E+00
  0.1480000      0.0000000E+00
  0.1485000      0.0000000E+00
  0.1490000      0.0000000E+00
  0.1495000      0.0000000E+00
  0.1500000      0.0000000E+00
  0.1505000      0.0000000E+00
  0.1510000      0.0000000E+00
  0.1515000      0.0000000E+00
  0.1520000      0.0000000E+00
  0.1525000      0.0000000E+00
  0.1530000      0.0000000E+00
  0.1535000      0.0000000E+00
  0.1540000      0.0000000E+00
  0.1545000      0.0000000E+00
  0.1550000      0.0000000E+00
  0.1555000      0.0000000E+00
  0.1560000      0.0000000E+00
  0.1565000      0.0000000E+00
  0.1570000      0.0000000E+00
  0.1575000      0.0000000E+00
  0.1580000      0.0000000E+00
  0.1585000      0.0000000E+00
  0.1590000      0.0000000E+00
  0.1595000      0.0000000E+00
  0.1600000      0.0000000E+00
  0.1605000      0.0000000E+00
  0.1610000      0.0000000E+00
  0.1615000      0.0000000E+00
  0.1620000      0.0000000E+00
  0.1625000      0.0000000E+00
  0.1630000      0.0000000E+00
  0.1635000      0.0000000E+00
  0.1640000      0.0000000E+00
  0.1645000      0.0000000E+00
  0.1650000      0.0000000E+00
  0.1655000      0.0000000E+00
  0.1660000      0.0000000E+00
  0.1665000      0.0000000E+00
  0.1670000      0.0000000E+00
  0.1675000      0.0000000E+00
  0.1680000      0.0000000E+00
  0.1685000      0.0000000E+00
  0.1690000      0.0000000E+00
  0.1695000      0.0000000E+00
  0.1700000      0.0000000E+00
  0.1705000      0.0000000E+00
  0.1710000      0.0000000E+00
  0.1715000      0.0000000E+00
  0.1720000      0.0000000E+00
  0.1725000      0.0000000E+00
  0.1730000      0.0000000E+00
  0.1735000      0.0000000E+00
  0.1740000      0.0000000E+00
  0.1745000      0.0000000E+00
  0.1750000      0.0000000E+00
  0.1755000      0.0000000E+00
  0.1760000      0.0000000E+00
  0.1765000      0.0000000E+00
  0.1770000      0.0000000E+00
  0.1775000      0.0000000E+00
  0.1780000      0.0000000E+00
  0.1785000      0.0000000E+00
  0.1790000      0.0000000E+00
  0.1795000      0.0000000E+00
  0.1800000      0.0000000E+00
  0.1805000      0.0000000E+00
  0.1810000      0.0000000E+00
  0.1815000      0.0000000E+00
  0.1820000      0.0000000E+00
  0.1825000      0.0000000E+00
  0.1830000      0.0000000E+00
  0.1835000      0.0000000E+00
  0.1840000      0.0000000E+00
  0.1845000      0.0000000E+00
  0.1850000      0.0000000E+00
  0.1855000      0.0000000E+00
  0.1860000      0.0000000E+00
  0.1865000      0.0000000E+00
  0.1870000      0.0000000E+00
  0.1875000      0.0000000E+00
  0.1880000      0.0000000E+00
  0.1885000      0.0000000E+00
  0.1890000      0.0000000E+00
  0.1895000      0.0000000E+00
  0.1900000      0.0000000E+00
  0.1905000      0.0000000E+00
  0.1910000      0.0000000E+00
  0.1915000      0.0000000E+00
  0.1920000      0.0000000E+00
  0.1925000      0.0000000E+00
  0.1930000      0.0000000E+00
  0.1935000      0.0000000E+00
  0.1940000      0.0000000E+00
  0.1945000      0.0000000E+00
  0.1950000      0.0000000E+00
  0.1955000      0.0000000E+00
  0.1960000      0.0000000E+00
  0.1965000      0.0000000E+00
  0.1970000      0.0000000E+00
  0.1975000      0.0000000E+00
  0.1980000      0.0000000E+00
  0.1985000      0.0000000E+00
  0.1990000      0.0000000E+00
  0.1995000      0.0000000E+00
  0.2000000      0.0000000E+00
  0.2005000      0.0000000E+00
  0.2010000      0.0000000E+00
  0.2015000      0.0000000E+00
  0.2020000      0.0000000E+00
  0.2025000      0.0000000E+00
  0.2030000      0.0000000E+00
  0.2035000      0.0000000E+00
  0.2040000      0.0000000E+00
  0.2045000      0.0000000E+00
  0.2050000      0.0000000E+00
  0.2055000      0.0000000E+00
  0.2060000      0.0000000E+00
  0.2065000      0.0000000E+00
  0.2070000      0.0000000E+00
  0.2075000      0.0000000E+00
  0.2080000      0.0000000E+00
  0.2085000      0.0000000E+00
  0.2090000      0.0000000E+00
  0.2095000      0.0000000E+00
  0.2100000      0.0000000E+00
  0.2105000      0.0000000E+00
  0.2110000      0.0000000E+00
  0.2115000      0.0000000E+00
  0.2120000      0.0000000E+00
  0.2125000      0.0000000E+00
  0.2130000      0.0000000E+00
  0.2135000      0.0000000E+00
  0.2140000      0.0000000E+00
  0.2145000      0.0000000E+00
  0.2150000      0.0000000E+00
  0.2155000      0.0000000E+00
  0.2160000      0.0000000E+00
  0.2165000      0.0000000E+00
  0.2170000      0.0000000E+00
  0.2175000      0.0000000E+00
  0.2180000      0.0000000E+00
  0.2185000      0.0000000E+00
  0.2190000      0.0000000E+00
  0.2195000      0.0000000E+00
  0.2200000      0.0000000E+00
  0.2205000      0.0000000E+00
  0.2210000      0.0000000E+00
  0.2215000      0.0000000E+00
  0.2220000      0.0000000E+00
  0.2225000      0.0000000E+00
  0.2230000      0.0000000E+00
  0.2235000      0.0000000E+00
  0.2240000      0.0000000E+00
  0.2245000      0.0000000E+00
  0.2250000      0.0000000E+00
  0.2255000      0.0000000E+00
  0.2260000      0.0000000E+00
  0.2265000      0.0000000E+00
  0.2270000      0.0000000E+00
  0.2275000      0.0000000E+00
  0.2280000      0.0000000E+00
  0.2285000      0.0000000E+00
  0.2290000      0.0000000E+00
  0.2295000      0.0000000E+00
  0.2300000      0.0000000E+00
  0.2305000      0.0000000E+00
  0.2310000      0.0000000E+00
  0.2315000      0.0000000E+00
  0.2320000      0.0000000E+00
  0.2325000      0.0000000E+00
  0.2330000      0.0000000E+00
  0.2335000      0.0000000E+00
  0.2340000      0.0000000E+00
  0.2345000      0.0000000E+00
  0.2350000      0.0000000E+00
  0.2355000      0.0000000E+00
  0.2360000      0.0000000E+00
  0.2365000      0.0000000E+00
  0.2370000      0.0000000E+00
  0.2375000      0.0000000E+00
  0.2380000      0.0000000E+00
  0.2385000      0.0000000E+00
  0.2390000      0.0000000E+00
  0.2395000      0.0000000E+00
  0.2400000      0.0000000E+00
  0.2405000      0.0000000E+00
  0.2410000      0.0000000E+00
  0.2415000      0.0000000E+00
  0.2420000      0.0000000E+00
  0.2425000      0.0000000E+00
  0.2430000      0.0000000E+00
  0.2435000      0.0000000E+00
  0.2440000      0.0000000E+00
  0.2445000      0.0000000E+00
  0.2450000      0.0000000E+00
  0.2455000      0.0000000E+00
  0.2460000      0.0000000E+00
  0.2465000      0.0000000E+00
  0.2470000      0.0000000E+00
  0.2475000      0.0000000E+00
  0.2480000      0.0000000E+00
  0.2485000      0.0000000E+00
  0.2490000      0.0000000E+00
  0.2495000      0.0000000E+00
  0.2500000      0.0000000E+00
  0.2505000      0.0000000E+00
  0.2510000      0.0000000E+00
  0.2515000      0.0000000E+00
  0.2520000      0.0000000E+00
  0.2525000      0.0000000E+00
  0.2530000      0.0000000E+00
  0.2535000      0.0000000E+00
  0.2540000      0.0000000E+00
  0.2545000      0.0000000E+00
  0.2550000      0.0000000E+00
  0.2555000      0.0000000E+00
  0.2560000      0.0000000E+00
  0.2565000      0.0000000E+00
  0.2570000      0.0000000E+00
  0.2575000      0.0000000E+00
  0.2580000      0.0000000E+00
  0.2585000      0.0000000E+00
  0.2590000      0.0000000E+00
  0.2595000      0.0000000E+00
  0.2600000      0.0000000E+00
  0.2605000      0.0000000E+00
  0.2610000      0.0000000E+00
  0.2615000      0.0000000E+00
  0.2620000      0.0000000E+00
  0.2625000      0.0000000E+00
  0.2630000      0.0000000E+00
  0.2635000      0.0000000E+00
  0.2640000      0.0000000E+00
  0.2645000      0.0000000E+00
  0.2650000      0.0000000E+00
  0.2655000      0.0000000E+00
  0.2660000      0.0000000E+00
  0.2665000      0.0000000E+00
  0.2670000      0.0000000E+00
  0.2675000      0.0000000E+00
  0.2680000      0.0000000E+00
  0.2685000      0.0000000E+00
  0.2690000      0.0000000E+00
  0.2695000      0.0000000E+00
  0.2700000      0.0000000E+00
  0.2705000      0.0000000E+00
  0.2710000      0.0000000E+00
  0.2715000      0.0000000E+00
  0.2720000      0.0000000E+00
  0.2725000     -2.8643256E-35
  0.2730000     -3.6882338E-35
  0.2735000     -1.3253120E-34
  0.2740000     -1.8055278E-34
  0.2745000     -7.2557096E-35
  0.2750000     -5.3382780E-35
  0.2755000      1.8632696E-35
  0.2760000      1.2693850E-35
  0.2765000      1.1113530E-34
  0.2770000      1.6228043E-34
  0.2775000      1.9440991E-34
  0.2780000      2.0116494E-34
  0.2785000      1.7997833E-34
  0.2790000      1.3885077E-34
  0.2795000      1.2503873E-34
  0.2800000     -3.3497195E-35
  0.2805000     -1.1464763E-34
  0.2810000     -1.8968552E-34
  0.2815000     -2.4439563E-34
  0.2820000     -2.8235331E-34
  0.2825000     -3.1030739E-34
  0.2830000     -3.3328922E-34
  0.2835000      4.4186810E-34
  0.2840000      4.6004533E-34
  0.2845000      4.3265399E-33
  0.2850000      3.8056714E-33
  0.2855000      8.6630572E-34
  0.2860000      1.5868099E-33
  0.2865000      3.8026932E-34
  0.2870000     -3.2054431E-33
  0.2875000      3.0038847E-34
  0.2880000     -2.7826128E-33
  0.2885000     -4.9151625E-33
  0.2890000     -5.4730205E-33
  0.2895000     -4.0488342E-33
  0.2900000     -4.8725611E-33
  0.2905000     -4.5913131E-33
  0.2910000     -2.3616949E-33
  0.2915000     -1.2075401E-33
  0.2920000     -9.3570177E-34
  0.2925000      4.5015288E-33
  0.2930000      6.4524736E-33
  0.2935000      9.1534393E-33
  0.2940000      1.0706882E-32
  0.2945000      1.1981647E-32
  0.2950000      1.1657584E-32
  0.2955000      1.0494002E-32
  0.2960000     -4.7210748E-33
  0.2965000     -1.9031111E-32
  0.2970000     -3.4003863E-32
  0.2975000     -3.7219575E-32
  0.2980000     -2.9824211E-32
  0.2985000     -1.5403596E-32
  0.2990000      7.4557081E-33
  0.2995000      3.1391724E-32
  0.3000000      5.4105172E-32
  0.3005000      6.9864643E-32
  0.3010000      7.3391402E-32
  0.3015000      6.7166701E-32
  0.3020000      4.8760455E-32
  0.3025000      2.2891367E-32
  0.3030000     -7.3089432E-33
  0.3035000     -3.3062022E-32
  0.3040000     -5.8474443E-32
  0.3045000     -7.4249948E-32
  0.3050000     -8.1592103E-32
  0.3055000     -7.7637811E-32
  0.3060000     -6.5758130E-32
  0.3065000     -5.1350760E-32
  0.3070000     -3.7606368E-32
  0.3075000     -2.9253967E-32
  0.3080000     -2.7815444E-32
  0.3085000     -3.4468924E-32
  0.3090000     -4.6114796E-32
  0.3095000     -5.8908853E-32
  0.3100000     -6.8427242E-32
  0.3105000     -7.0284388E-32
  0.3110000     -6.0560058E-32
  0.3115000     -3.7478965E-32
  0.3120000     -1.8300542E-33
  0.3125000      4.4246095E-32
  0.3130000      9.5276150E-32
  0.3135000      1.4573455E-31
  0.3140000      1.9010229E-31
  0.3145000      2.2392467E-31
  0.3150000      2.4440914E-31
  0.3155000      2.5276719E-31
  0.3160000      2.4645436E-31
  0.3165000      2.3127699E-31
  0.3170000      2.1051888E-31
  0.3175000      1.8749192E-31
  0.3180000      1.6452141E-31
  0.3185000      1.4106670E-31
  0.3190000      1.1834561E-31
  0.3195000      9.0300165E-32
  0.3200000      5.3434541E-32
  0.3205000      3.8476509E-33
  0.3210000     -6.1514066E-32
  0.3215000     -1.4337060E-31
  0.3220000     -2.4068329E-31
  0.3225000     -3.4604579E-31
  0.3230000     -4.5795191E-31
  0.3235000     -5.6493849E-31
  0.3240000     -6.6024391E-31
  0.3245000     -7.3641533E-31
  0.3250000     -7.8769637E-31
  0.3255000     -8.0989567E-31
  0.3260000     -8.0216618E-31
  0.3265000     -7.6478810E-31
  0.3270000     -7.0011320E-31
  0.3275000     -6.1012022E-31
  0.3280000     -4.9762014E-31
  0.3285000     -3.6391424E-31
  0.3290000     -2.1006272E-31
  0.3295000     -3.4236911E-32
  0.3300000      1.6411046E-31
  0.3305000      3.8547309E-31
  0.3310000      6.2923122E-31
  0.3315000      8.9260345E-31
  0.3320000      1.1699077E-30
  0.3325000      1.4523808E-30
  0.3330000      1.7284586E-30
  0.3335000      1.9841914E-30
  0.3340000      2.2045129E-30
  0.3345000      2.3742919E-30
  0.3350000      2.4799231E-30
  0.3355000      2.5096554E-30
  0.3360000      2.4551151E-30
  0.3365000      2.3111314E-30
  0.3370000      2.0758106E-30
  0.3375000      1.7499225E-30
  0.3380000      1.3361664E-30
  0.3385000      8.3905978E-31
  0.3390000      2.6382019E-31
  0.3395000     -3.8266850E-31
  0.3400000     -1.0925107E-30
  0.3405000     -1.8554492E-30
  0.3410000     -2.6582232E-30
  0.3415000     -3.4836492E-30
  0.3420000     -4.3099514E-30
  0.3425000     -5.1106759E-30
  0.3430000     -5.8552137E-30
  0.3435000     -6.5098614E-30
  0.3440000     -7.0392995E-30
  0.3445000     -7.4088855E-30
  0.3450000     -7.5864622E-30
  0.3455000     -7.5447869E-30
  0.3460000     -7.2619919E-30
  0.3465000     -6.7236757E-30
  0.3470000     -5.9226803E-30
  0.3475000     -4.8591397E-30
  0.3480000     -3.5401500E-30
  0.3485000     -1.9792795E-30
  0.3490000     -1.9629933E-31
  0.3495000      1.7831094E-30
  0.3500000      3.9269388E-30
  0.3505000      6.1964731E-30
  0.3510000      8.5455475E-30
  0.3515000      1.0920422E-29
  0.3520000      1.3259354E-29
  0.3525000      1.5493256E-29
  0.3530000      1.7546919E-29
  0.3535000      1.9340775E-29
  0.3540000      2.0793327E-29
  0.3545000      2.1824489E-29
  0.3550000      2.2358396E-29
  0.3555000      2.2326608E-29
  0.3560000      2.1670555E-29
  0.3565000      2.0344138E-29
  0.3570000      1.8315463E-29
  0.3575000      1.5567936E-29
  0.3580000      1.2101144E-29
  0.3585000      7.9317236E-30
  0.3590000      3.0938688E-30
  0.3595000     -2.3599285E-30
  0.3600000     -8.3579853E-30
  0.3605000     -1.4808629E-29
  0.3610000     -2.1599562E-29
  0.3615000     -2.8597159E-29
  0.3620000     -3.5646797E-29
  0.3625000     -4.2573575E-29
  0.3630000     -4.9184276E-29
  0.3635000     -5.5270289E-29
  0.3640000     -6.0611014E-29
  0.3645000     -6.4979239E-29
  0.3650000     -6.8146648E-29
  0.3655000     -6.9889753E-29
  0.3660000     -6.9996100E-29
  0.3665000     -6.8271165E-29
  0.3670000     -6.4544376E-29
  0.3675000     -5.8675737E-29
  0.3680000     -5.0562299E-29
  0.3685000     -4.0144111E-29
  0.3690000     -2.7410867E-29
  0.3695000     -1.2408071E-29
  0.3700000      4.7563052E-30
  0.3705000      2.3906016E-29
  0.3710000      4.4790606E-29
  0.3715000      6.7080892E-29
  0.3720000      9.0365897E-29
  0.3725000      1.1415135E-28
  0.3730000      1.3786097E-28
  0.3735000      1.6084237E-28
  0.3740000      1.8237152E-28
  0.3745000      2.0166805E-28
  0.3750000      2.1790672E-28
  0.3755000      2.3023753E-28
  0.3760000      2.3780526E-28
  0.3765000      2.3977736E-28
  0.3770000      2.3536559E-28
  0.3775000      2.2386073E-28
  0.3780000      2.0465960E-28
  0.3785000      1.7729893E-28
  0.3790000      1.4148793E-28
  0.3795000      9.7141409E-29
  0.3800000      4.4409757E-29
  0.3805000     -1.6289585E-29
  0.3810000     -8.4247633E-29
  0.3815000     -1.5844413E-28
  0.3820000     -2.3753409E-28
  0.3825000     -3.1984362E-28
  0.3830000     -4.0337606E-28
  0.3835000     -4.8583061E-28
  0.3840000     -5.6463312E-28
  0.3845000     -6.3697860E-28
  0.3850000     -6.9989300E-28
  0.3855000     -7.5030172E-28
  0.3860000     -7.8511603E-28
  0.3865000     -8.0132995E-28
  0.3870000     -7.9612277E-28
  0.3875000     -7.6697627E-28
  0.3880000     -7.1179386E-28
  0.3885000     -6.2901589E-28
  0.3890000     -5.1774428E-28
  0.3895000     -3.7785275E-28
  0.3900000     -2.1008564E-28
  0.3905000     -1.6148927E-29
  0.3910000      2.0122270E-28
  0.3915000      4.3822966E-28
  0.3920000      6.8999372E-28
  0.3925000      9.5057989E-28
  0.3930000      1.2130663E-27
  0.3935000      1.4696407E-27
  0.3940000      1.7117465E-27
  0.3945000      1.9302795E-27
  0.3950000      2.1158047E-27
  0.3955000      2.2588429E-27
  0.3960000      2.3501576E-27
  0.3965000      2.3810907E-27
  0.3970000      2.3439124E-27
  0.3975000      2.2321865E-27
  0.3980000      2.0410971E-27
  0.3985000      1.7678336E-27
  0.3990000      1.4118756E-27
  0.3995000      9.7527243E-28
  0.4000000      4.6286833E-28
  0.4005000     -1.1754886E-28
  0.4010000     -7.5518578E-28
  0.4015000     -1.4362565E-27
  0.4020000     -2.1441120E-27
  0.4025000     -2.8594796E-27
  0.4030000     -3.5608141E-27
  0.4035000     -4.2247569E-27
  0.4040000     -4.8266955E-27
  0.4045000     -5.3414870E-27
  0.4050000     -5.7441635E-27
  0.4055000     -6.0108270E-27
  0.4060000     -6.1195037E-27
  0.4065000     -6.0510808E-27
  0.4070000     -5.7902521E-27
  0.4075000     -5.3263665E-27
  0.4080000     -4.6542551E-27
  0.4085000     -3.7749752E-27
  0.4090000     -2.6963557E-27
  0.4095000     -1.4334393E-27
  0.4100000     -8.6752439E-30
  0.4105000      1.5480793E-27
  0.4110000      3.1998257E-27
  0.4115000      4.9029535E-27
  0.4120000      6.6080436E-27
  0.4125000      8.2609614E-27
  0.4130000      9.8041382E-27
  0.4135000      1.1178208E-26
  0.4140000      1.2323703E-26
  0.4145000      1.3183185E-26
  0.4150000      1.3703104E-26
  0.4155000      1.3836090E-26
  0.4160000      1.3543018E-26
  0.4165000      1.2795120E-26
  0.4170000      1.1575736E-26
  0.4175000      9.8821314E-27
  0.4180000      7.7267100E-27
  0.4185000      5.1381377E-27
  0.4190000      2.1616611E-27
  0.4195000     -1.1407524E-27
  0.4200000     -4.6910157E-27
  0.4205000     -8.3960954E-27
  0.4210000     -1.2149647E-26
  0.4215000     -1.5834423E-26
  0.4220000     -1.9325172E-26
  0.4225000     -2.2491917E-26
  0.4230000     -2.5203915E-26
  0.4235000     -2.7333747E-26
  0.4240000     -2.8761816E-26
  0.4245000     -2.9380859E-26
  0.4250000     -2.9100527E-26
  0.4255000     -2.7851418E-26
  0.4260000     -2.5589609E-26
  0.4265000     -2.2299793E-26
  0.4270000     -1.7998248E-26
  0.4275000     -1.2734852E-26
  0.4280000     -6.5944065E-27
  0.4285000      3.0352191E-28
  0.4290000      7.8052147E-27
  0.4295000      1.5725092E-26
  0.4300000      2.3849042E-26
  0.4305000      3.1938750E-26
  0.4310000      3.9737432E-26
  0.4315000      4.6975977E-26
  0.4320000      5.3380547E-26
  0.4325000      5.8680670E-26
  0.4330000      6.2617313E-26
  0.4335000      6.4952188E-26
  0.4340000      6.5475862E-26
  0.4345000      6.4016654E-26
  0.4350000      6.0447730E-26
  0.4355000      5.4694814E-26
  0.4360000      4.6742015E-26
  0.4365000      3.6635693E-26
  0.4370000      2.4488071E-26
  0.4375000      1.0478050E-26
  0.4380000     -5.1488971E-27
  0.4385000     -2.2083719E-26
  0.4390000     -3.9957725E-26
  0.4395000     -5.8349101E-26
  0.4400000     -7.6790968E-26
  0.4405000     -9.4780892E-26
  0.4410000     -1.1179155E-25
  0.4415000     -1.2728371E-25
  0.4420000     -1.4071887E-25
  0.4425000     -1.5157188E-25
  0.4430000     -1.5934630E-25
  0.4435000     -1.6358623E-25
  0.4440000     -1.6389065E-25
  0.4445000     -1.5992471E-25
  0.4450000     -1.5143095E-25
  0.4455000     -1.3823922E-25
  0.4460000     -1.2027404E-25
  0.4465000     -9.7561503E-26
  0.4470000     -7.0233192E-26
  0.4475000     -3.8529692E-26
  0.4480000     -2.7993711E-27
  0.4485000      3.6499667E-26
  0.4490000      7.8804980E-26
  0.4495000      1.2345271E-25
  0.4500000      1.6968281E-25
  0.4505000      2.1664588E-25
  0.4510000      2.6341254E-25
  0.4515000      3.0897857E-25
  0.4520000      3.5227922E-25
  0.4525000      3.9219576E-25
  0.4530000      4.2756651E-25
  0.4535000      4.5720588E-25
  0.4540000      4.7990965E-25
  0.4545000      4.9447433E-25
  0.4550000      4.9971735E-25
  0.4555000      4.9449090E-25
  0.4560000      4.7770902E-25
  0.4565000      4.4836980E-25
  0.4570000      4.0558559E-25
  0.4575000      3.4861469E-25
  0.4580000      2.7690058E-25
  0.4585000      1.9010378E-25
  0.4590000      8.8154812E-26
  0.4595000     -2.8711785E-26
  0.4600000     -1.5989964E-25
  0.4605000     -3.0441272E-25
  0.4610000     -4.6080565E-25
  0.4615000     -6.2714299E-25
  0.4620000     -8.0096055E-25
  0.4625000     -9.7923681E-25
  0.4630000     -1.1583783E-24
  0.4635000     -1.3342181E-24
  0.4640000     -1.5020136E-24
  0.4645000     -1.6565065E-24
  0.4650000     -1.7919545E-24
  0.4655000     -1.9022193E-24
  0.4660000     -1.9808765E-24
  0.4665000     -2.0213535E-24
  0.4670000     -2.0170838E-24
  0.4675000     -1.9617001E-24
  0.4680000     -1.8492538E-24
  0.4685000     -1.6744642E-24
  0.4690000     -1.4329507E-24
  0.4695000     -1.1215401E-24
  0.4700000     -7.3851210E-25
  0.4705000     -2.8389502E-25
  0.4710000      2.4028055E-25
  0.4715000      8.2973514E-25
  0.4720000      1.4777470E-24
  0.4725000      2.1749627E-24
  0.4730000      2.9093259E-24
  0.4735000      3.6660331E-24
  0.4740000      4.4275603E-24
  0.4745000      5.1738208E-24
  0.4750000      5.8824127E-24
  0.4755000      6.5289181E-24
  0.4760000      7.0874064E-24
  0.4765000      7.5309364E-24
  0.4770000      7.8322749E-24
  0.4775000      7.9646197E-24
  0.4780000      7.9024804E-24
  0.4785000      7.6225689E-24
  0.4790000      7.1047866E-24
  0.4795000      6.3332286E-24
  0.4800000      5.2971793E-24
  0.4805000      3.9920728E-24
  0.4810000      2.4203949E-24
  0.4815000      5.9249839E-25
  0.4820000     -1.4727575E-24
  0.4825000     -3.7475228E-24
  0.4830000     -6.1946644E-24