  0.0000000E+00  0.0000000E+00
  5.0000002E-04  0.0000000E+00
  1.0000000E-03  0.0000000E+00
  1.5000000E-03  0.0000000E+00
  2.0000001E-03  0.0000000E+00
  2.4999999E-03  0.0000000E+00
  3.0000000E-03  0.0000000E+00
  3.5000001E-03  0.0000000E+00
  4.0000002E-03  0.0000000E+00
  4.4999998E-03  0.0000000E+00
  4.9999999E-03  0.0000000E+00
  5.5000000E-03  0.0000000E+00
  6.0000001E-03  0.0000000E+00
  6.5000001E-03  0.0000000E+00
  7.0000002E-03  0.0000000E+00
  7.4999998E-03  0.0000000E+00
  8.0000004E-03  0.0000000E+00
  8.5000005E-03  0.0000000E+00
  8.9999996E-03  0.0000000E+00
  9.4999997E-03  0.0000000E+00
  9.9999998E-03  0.0000000E+00
  1.0500000E-02  0.0000000E+00
  1.1000000E-02  0.0000000E+00
  1.1500000E-02  0.0000000E+00
  1.2000000E-02  0.0000000E+00
  1.2500000E-02  0.0000000E+00
  1.3000000E-02  0.0000000E+00
  1.3500000E-02  0.0000000E+00
  1.4000000E-02  0.0000000E+00
  1.4500000E-02  0.0000000E+00
  1.5000000E-02  0.0000000E+00
  1.5500000E-02  0.0000000E+00
  1.6000001E-02  0.0000000E+00
  1.6500000E-02  0.0000000E+00
  1.7000001E-02  0.0000000E+00
  1.7500000E-02  0.0000000E+00
  1.7999999E-02  0.0000000E+00
  1.8500000E-02  0.0000000E+00
  1.8999999E-02  0.0000000E+00
  1.9500000E-02  0.0000000E+00
  2.0000000E-02  0.0000000E+00
  2.0500001E-02  0.0000000E+00
  2.1000000E-02  0.0000000E+00
  2.1500001E-02  0.0000000E+00
  2.2000000E-02  0.0000000E+00
  2.2500001E-02  0.0000000E+00
  2.3000000E-02  0.0000000E+00
  2.3499999E-02  0.0000000E+00
  2.4000000E-02  0.0000000E+00
  2.4499999E-02  0.0000000E+00
  2.5000000E-02  0.0000000E+00
  2.5500000E-02  0.0000000E+00
  2.6000001E-02  0.0000000E+00
  2.6500000E-02  0.0000000E+00
  2.7000001E-02  0.0000000E+00
  2.7500000E-02  0.0000000E+00
  2.8000001E-02  0.0000000E+00
  2.8500000E-02  0.0000000E+00
  2.8999999E-02  0.0000000E+00
  2.9500000E-02  0.0000000E+00
  2.9999999E-02  0.0000000E+00
  3.0500000E-02  0.0000000E+00
  3.0999999E-02  0.0000000E+00
  3.1500001E-02  0.0000000E+00
  3.2000002E-02  0.0000000E+00
  3.2499999E-02  0.0000000E+00
  3.3000000E-02  0.0000000E+00
  3.3500001E-02  0.0000000E+00
  3.4000002E-02  0.0000000E+00
  3.4499999E-02  0.0000000E+00
  3.5000000E-02  0.0000000E+00
  3.5500001E-02  0.0000000E+00
  3.5999998E-02  0.0000000E+00
  3.6499999E-02  0.0000000E+00
  3.7000000E-02  0.0000000E+00
  3.7500001E-02  0.0000000E+00
  3.7999999E-02  0.0000000E+00
  3.8500000E-02  0.0000000E+00
  3.9000001E-02  0.0000000E+00
  3.9500002E-02  0.0000000E+00
  3.9999999E-02  0.0000000E+00
  4.0500000E-02  0.0000000E+00
  4.1000001E-02  0.0000000E+00
  4.1499998E-02  0.0000000E+00
  4.1999999E-02  0.0000000E+00
  4.2500000E-02  0.0000000E+00
  4.3000001E-02  0.0000000E+00
  4.3499999E-02  0.0000000E+00
  4.4000000E-02  0.0000000E+00
  4.4500001E-02  0.0000000E+00
  4.5000002E-02  0.0000000E+00
  4.5499999E-02  0.0000000E+00
  4.6000000E-02  0.0000000E+00
  4.6500001E-02  0.0000000E+00
  4.6999998E-02  0.0000000E+00
  4.7499999E-02  0.0000000E+00
  4.8000000E-02  0.0000000E+00
  4.8500001E-02  0.0000000E+00
  4.8999999E-02  0.0000000E+00
  4.9500000E-02  0.0000000E+00
  5.0000001E-02  0.0000000E+00
  5.0500002E-02  0.0000000E+00
  5.0999999E-02  0.0000000E+00
  5.1500000E-02  0.0000000E+00
  5.2000001E-02  0.0000000E+00
  5.2499998E-02  0.0000000E+00
  5.2999999E-02  0.0000000E+00
  5.3500000E-02  0.0000000E+00
  5.4000001E-02  0.0000000E+00
  5.4499999E-02  0.0000000E+00
  5.5000000E-02  0.0000000E+00
  5.5500001E-02  0.0000000E+00
  5.6000002E-02  0.0000000E+00
  5.6499999E-02  0.0000000E+00
  5.7000000E-02  0.0000000E+00
  5.7500001E-02  0.0000000E+00
  5.7999998E-02  0.0000000E+00
  5.8499999E-02  0.0000000E+00
  5.9000000E-02  0.0000000E+00
  5.9500001E-02  0.0000000E+00
  5.9999999E-02  0.0000000E+00
  6.0500000E-02  0.0000000E+00
  6.1000001E-02  0.0000000E+00
  6.1500002E-02  0.0000000E+00
  6.1999999E-02  0.0000000E+00
  6.2500000E-02  0.0000000E+00
  6.3000001E-02  0.0000000E+00
  6.3500002E-02  0.0000000E+00
  6.4000003E-02  0.0000000E+00
  6.4499997E-02  0.0000000E+00
  6.4999998E-02  0.0000000E+00
  6.5499999E-02  0.0000000E+00
  6.6000000E-02  0.0000000E+00
  6.6500001E-02  0.0000000E+00
  6.7000002E-02  0.0000000E+00
  6.7500003E-02  0.0000000E+00
  6.8000004E-02  0.0000000E+00
  6.8499997E-02  0.0000000E+00
  6.8999998E-02  0.0000000E+00
  6.9499999E-02  0.0000000E+00
  7.0000000E-02  0.0000000E+00
  7.0500001E-02  0.0000000E+00
  7.1000002E-02  0.0000000E+00
  7.1500003E-02  0.0000000E+00
  7.1999997E-02  0.0000000E+00
  7.2499998E-02  0.0000000E+00
  7.2999999E-02  0.0000000E+00
  7.3500000E-02  0.0000000E+00
  7.4000001E-02  0.0000000E+00
  7.4500002E-02  0.0000000E+00
  7.5000003E-02  0.0000000E+00
  7.5499997E-02  0.0000000E+00
  7.5999998E-02  0.0000000E+00
  7.6499999E-02  0.0000000E+00
  7.7000000E-02  0.0000000E+00
  7.7500001E-02  0.0000000E+00
  7.8000002E-02  0.0000000E+00
  7.8500003E-02  0.0000000E+00
  7.9000004E-02  0.0000000E+00
  7.9499997E-02  0.0000000E+00
  7.9999998E-02  0.0000000E+00
  8.0499999E-02  0.0000000E+00
  8.1000000E-02  0.0000000E+00
  8.1500001E-02  0.0000000E+00
  8.2000002E-02  0.0000000E+00
  8.2500003E-02  0.0000000E+00
  8.2999997E-02  0.0000000E+00
  8.3499998E-02  0.0000000E+00
  8.3999999E-02  0.0000000E+00
  8.4500000E-02  0.0000000E+00
  8.5000001E-02  0.0000000E+00
  8.5500002E-02  0.0000000E+00
  8.6000003E-02  0.0000000E+00
  8.6499996E-02  0.0000000E+00
  8.6999997E-02  0.0000000E+00
  8.7499999E-02  0.0000000E+00
  8.8000000E-02  0.0000000E+00
  8.8500001E-02  0.0000000E+00
  8.9000002E-02  0.0000000E+00
  8.9500003E-02  0.0000000E+00
  9.0000004E-02  0.0000000E+00
  9.0499997E-02  0.0000000E+00
  9.0999998E-02  0.0000000E+00
  9.1499999E-02  0.0000000E+00
  9.2000000E-02  0.0000000E+00
  9.2500001E-02  0.0000000E+00
  9.3000002E-02  0.0000000E+00
  9.3500003E-02  0.0000000E+00
  9.3999997E-02  0.0000000E+00
  9.4499998E-02  0.0000000E+00
  9.4999999E-02  0.0000000E+00
  9.5500000E-02  0.0000000E+00
  9.6000001E-02  0.0000000E+00
  9.6500002E-02  0.0000000E+00
  9.7000003E-02  0.0000000E+00
  9.7499996E-02  0.0000000E+00
  9.7999997E-02  0.0000000E+00
  9.8499998E-02  0.0000000E+00
  9.8999999E-02  0.0000000E+00
  9.9500000E-02  0.0000000E+00
  0.1000000      0.0000000E+00
  0.1005000      0.0000000E+00
  0.1010000      0.0000000E+00
  0.1015000      0.0000000E+00
  0.1020000      0.0000000E+00
  0.1025000      0.0000000E+00
  0.1030000      0.0000000E+00
  0.1035000      0.0000000E+00
  0.1040000      0.0000000E+00
  0.1045000      0.0000000E+00
  0.1050000      0.0000000E+00
  0.1055000      0.0000000E+00
  0.1060000      0.0000000E+00
  0.1065000      0.0000000E+00
  0.1070000      0.0000000E+00
  0.1075000      0.0000000E+00
  0.1080000      0.0000000E+00
  0.1085000      0.0000000E+00
  0.1090000      0.0000000E+00
  0.1095000      0.0000000E+00
  0.1100000      0.0000000E+00
  0.1105000      0.0000000E+00
  0.1110000      0.0000000E+00
  0.1115000      0.0000000E+00
  0.1120000      0.0000000E+00
  0.1125000      0.0000000E+00
  0.1130000      0.0000000E+00
  0.1135000      0.0000000E+00
  0.1140000      0.0000000E+00
  0.1145000      0.0000000E+00
  0.1150000      0.0000000E+00
  0.1155000      0.0000000E+00
  0.1160000      0.0000000E+00
  0.1165000      0.0000000E+00
  0.1170000      0.0000000E+00
  0.1175000      0.0000000E+00
  0.1180000      0.0000000E+00
  0.1185000      0.0000000E+00
  0.1190000      0.0000000E+00
  0.1195000      0.0000000E+00
  0.1200000      0.0000000E+00
  0.1205000      0.0000000E+00
  0.1210000      0.0000000E+00
  0.1215000      0.0000000E+00
  0.1220000      0.0000000E+00
  0.1225000      0.0000000E+00
  0.1230000      0.0000000E+00
  0.1235000      0.0000000E+00
  0.1240000      0.0000000E+00
  0.1245000      0.0000000E+00
  0.1250000      0.0000000E+00
  0.1255000      0.0000000E+00
  0.1260000      0.0000000E+00
  0.1265000      0.0000000E+00
  0.1270000      0.0000000E+00
  0.1275000      0.0000000E+00
  0.1280000      0.0000000E+00
  0.1285000      0.0000000E+00
  0.1290000      0.0000000E+00
  0.1295000      0.0000000E+00
  0.1300000      0.0000000E+00
  0.1305000      0.0000000E+00
  0.1310000      0.0000000E+00
  0.1315000      0.0000000E+00
  0.1320000      0.0000000E+00
  0.1325000      0.0000000E+00
  0.1330000      0.0000000E+00
  0.1335000      0.0000000E+00
  0.1340000      0.0000000E+00
  0.1345000      0.0000000E+00
  0.1350000      0.0000000E+00
  0.1355000      0.0000000E+00
  0.1360000      0.0000000E+00
  0.1365000      0.0000000E+00
  0.1370000      0.0000000E+00
  0.1375000      0.0000000E+00
  0.1380000      0.0000000E+00
  0.1385000      0.0000000E+00
  0.1390000      0.0000000E+00
  0.1395000      0.0000000E+00
  0.1400000      0.0000000E+00
  0.1405000      0.0000000E+00
  0.1410000      0.0000000E+00
  0.1415000      0.0000000E+00
  0.1420000      0.0000000E+00
  0.1425000      0.0000000E+00
  0.1430000      0.0000000E+00
  0.1435000      0.0000000E+00
  0.1440000      0.0000000E+00
  0.1445000      0.0000000E+00
  0.1450000      0.0000000E+00
  0.1455000      0.0000000E+00
  0.1460000      0.0000000E+00
  0.1465000      0.0000000E+00
  0.1470000      0.0000000E+00
  0.1475000      0.0000000E+00
  0.1480000      0.0000000E+00
  0.1485000      0.0000000E+00
  0.1490000      0.0000000E+00
  0.1495000      0.0000000E+00
  0.1500000      0.0000000E+00
  0.1505000      0.0000000E+00
  0.1510000      0.0000000E+00
  0.1515000      0.0000000E+00
  0.1520000      0.0000000E+00
  0.1525000      0.0000000E+00
  0.1530000      0.0000000E+00
  0.1535000      0.0000000E+00
  0.1540000      0.0000000E+00
  0.1545000      0.0000000E+00
  0.1550000      0.0000000E+00
  0.1555000      0.0000000E+00
  0.1560000      0.0000000E+00
  0.1565000      0.0000000E+00
  0.1570000      0.0000000E+00
  0.1575000      0.0000000E+00
  0.1580000      0.0000000E+00
  0.1585000      0.0000000E+00
  0.1590000      0.0000000E+00
  0.1595000      0.0000000E+00
  0.1600000      0.0000000E+00
  0.1605000      0.0000000E+00
  0.1610000      0.0000000E+00
  0.1615000      0.0000000E+00
  0.1620000      0.0000000E+00
  0.1625000      0.0000000E+00
  0.1630000      0.0000000E+00
  0.1635000      0.0000000E+00
  0.1640000      0.0000000E+00
  0.1645000      0.0000000E+00
  0.1650000      0.0000000E+00
  0.1655000      0.0000000E+00
  0.1660000      0.0000000E+00
  0.1665000      0.0000000E+00
  0.1670000      0.0000000E+00
  0.1675000      0.0000000E+00
  0.1680000      0.0000000E+00
  0.1685000      0.0000000E+00
  0.1690000      0.0000000E+00
  0.1695000      0.0000000E+00
  0.1700000      0.0000000E+00
  0.1705000      0.0000000E+00
  0.1710000      0.0000000E+00
  0.1715000      0.0000000E+00
  0.1720000      0.0000000E+00
  0.1725000      0.0000000E+00
  0.1730000      0.0000000E+00
  0.1735000      0.0000000E+00
  0.1740000      0.0000000E+00
  0.1745000      0.0000000E+00
  0.1750000      0.0000000E+00
  0.1755000      0.0000000E+00
  0.1760000      0.0000000E+00
  0.1765000      0.0000000E+00
  0.1770000      0.0000000E+00
  0.1775000      0.0000000E+00
  0.1780000      0.0000000E+00
  0.1785000      0.0000000E+00
  0.1790000      0.0000000E+00
  0.1795000      0.0000000E+00
  0.1800000      0.0000000E+00
  0.1805000      0.0000000E+00
  0.1810000      0.0000000E+00
  0.1815000      0.0000000E+00
  0.1820000      0.0000000E+00
  0.1825000      0.0000000E+00
  0.1830000      0.0000000E+00
  0.1835000      0.0000000E+00
  0.1840000      0.0000000E+00
  0.1845000      0.0000000E+00
  0.1850000      0.0000000E+00
  0.1855000      0.0000000E+00
  0.1860000      0.0000000E+00
  0.1865000      0.0000000E+00
  0.1870000      0.0000000E+00
  0.1875000      0.0000000E+00
  0.1880000      0.0000000E+00
  0.1885000      0.0000000E+00
  0.1890000      0.0000000E+00
  0.1895000      0.0000000E+00
  0.1900000      0.0000000E+00
  0.1905000      0.0000000E+00
  0.1910000      0.0000000E+00
  0.1915000      0.0000000E+00
  0.1920000      0.0000000E+00
  0.1925000      0.0000000E+00
  0.1930000      0.0000000E+00
  0.1935000      0.0000000E+00
  0.1940000      0.0000000E+00
  0.1945000      0.0000000E+00
  0.1950000      0.0000000E+00
  0.1955000      0.0000000E+00
  0.1960000      0.0000000E+00
  0.1965000      0.0000000E+00
  0.1970000      0.0000000E+00
  0.1975000      0.0000000E+00
  0.1980000      0.0000000E+00
  0.1985000      0.0000000E+00
  0.1990000      0.0000000E+00
  0.1995000      0.0000000E+00
  0.2000000      0.0000000E+00
  0.2005000      0.0000000E+00
  0.2010000      0.0000000E+00
  0.2015000      0.0000000E+00
  0.2020000      0.0000000E+00
  0.2025000      0.0000000E+00
  0.2030000      0.0000000E+00
  0.2035000      0.0000000E+00
  0.2040000      0.0000000E+00
  0.2045000      0.0000000E+00
  0.2050000      0.0000000E+00
  0.2055000      0.0000000E+00
  0.2060000      0.0000000E+00
  0.2065000      0.0000000E+00
  0.2070000      0.0000000E+00
  0.2075000      0.0000000E+00
  0.2080000      0.0000000E+00
  0.2085000      0.0000000E+00
  0.2090000      0.0000000E+00
  0.2095000      0.0000000E+00
  0.2100000      0.0000000E+00
  0.2105000      0.0000000E+00
  0.2110000      0.0000000E+00
  0.2115000      0.0000000E+00
  0.2120000      0.0000000E+00
  0.2125000      0.0000000E+00
  0.2130000      0.0000000E+00
  0.2135000      0.0000000E+00
  0.2140000      0.0000000E+00
  0.2145000      0.0000000E+00
  0.2150000      0.0000000E+00
  0.2155000      0.0000000E+00
  0.2160000      0.0000000E+00
  0.2165000      0.0000000E+00
  0.2170000      0.0000000E+00
  0.2175000      0.0000000E+00
  0.2180000      0.0000000E+00
  0.2185000      0.0000000E+00
  0.2190000      0.0000000E+00
  0.2195000      0.0000000E+00
  0.2200000      0.0000000E+00
  0.2205000      0.0000000E+00
  0.2210000      0.0000000E+00
  0.2215000      0.0000000E+00
  0.2220000      0.0000000E+00
  0.2225000      0.0000000E+00
  0.2230000      0.0000000E+00
  0.2235000      0.0000000E+00
  0.2240000      0.0000000E+00
  0.2245000      0.0000000E+00
  0.2250000      0.0000000E+00
  0.2255000      0.0000000E+00
  0.2260000      0.0000000E+00
  0.2265000      0.0000000E+00
  0.2270000      0.0000000E+00
  0.2275000      0.0000000E+00
  0.2280000      0.0000000E+00
  0.2285000      0.0000000E+00
  0.2290000      0.0000000E+00
  0.2295000      0.0000000E+00
  0.2300000      0.0000000E+00
  0.2305000      0.0000000E+00
  0.2310000      0.0000000E+00
  0.2315000      0.0000000E+00
  0.2320000      0.0000000E+00
  0.2325000      0.0000000E+00
  0.2330000      0.0000000E+00
  0.2335000      0.0000000E+00
  0.2340000      0.0000000E+00
  0.2345000      0.0000000E+00
  0.2350000      0.0000000E+00
  0.2355000      0.0000000E+00
  0.2360000      0.0000000E+00
  0.2365000      0.0000000E+00
  0.2370000      0.0000000E+00
  0.2375000      0.0000000E+00
  0.2380000      0.0000000E+00
  0.2385000      0.0000000E+00
  0.2390000      0.0000000E+00
  0.2395000      0.0000000E+00
  0.2400000      0.0000000E+00
  0.2405000      0.0000000E+00
  0.2410000      0.0000000E+00
  0.2415000      0.0000000E+00
  0.2420000      0.0000000E+00
  0.2425000      0.0000000E+00
  0.2430000      0.0000000E+00
  0.2435000      0.0000000E+00
  0.2440000      0.0000000E+00
  0.2445000      0.0000000E+00
  0.2450000      0.0000000E+00
  0.2455000      0.0000000E+00
  0.2460000      0.0000000E+00
  0.2465000      0.0000000E+00
  0.2470000      0.0000000E+00
  0.2475000      0.0000000E+00
  0.2480000      0.0000000E+00
  0.2485000      0.0000000E+00
  0.2490000      0.0000000E+00
  0.2495000      0.0000000E+00
  0.2500000      0.0000000E+00
  0.2505000      0.0000000E+00
  0.2510000      0.0000000E+00
  0.2515000      0.0000000E+00
  0.2520000      0.0000000E+00
  0.2525000      0.0000000E+00
  0.2530000      0.0000000E+00
  0.2535000      0.0000000E+00
  0.2540000      0.0000000E+00
  0.2545000      0.0000000E+00
  0.2550000      0.0000000E+00
  0.2555000      0.0000000E+00
  0.2560000      0.0000000E+00
  0.2565000      0.0000000E+00
  0.2570000      0.0000000E+00
  0.2575000      0.0000000E+00
  0.2580000      0.0000000E+00
  0.2585000      0.0000000E+00
  0.2590000      0.0000000E+00
  0.2595000      0.0000000E+00
  0.2600000      0.0000000E+00
  0.2605000      0.0000000E+00
  0.2610000      0.0000000E+00
  0.2615000      0.0000000E+00
  0.2620000      0.0000000E+00
  0.2625000      0.0000000E+00
  0.2630000      0.0000000E+00
  0.2635000      0.0000000E+00
  0.2640000      0.0000000E+00
  0.2645000      0.0000000E+00
  0.2650000      0.0000000E+00
  0.2655000      0.0000000E+00
  0.2660000      0.0000000E+00
  0.2665000      0.0000000E+00
  0.2670000      0.0000000E+00
  0.2675000      0.0000000E+00
  0.2680000      0.0000000E+00
  0.2685000      0.0000000E+00
  0.2690000      0.0000000E+00
  0.2695000      0.0000000E+00
  0.2700000      0.0000000E+00
  0.2705000      0.0000000E+00
  0.2710000      0.0000000E+00
  0.2715000      0.0000000E+00
  0.2720000      0.0000000E+00
  0.2725000      0.0000000E+00
  0.2730000      0.0000000E+00
  0.2735000      0.0000000E+00
  0.2740000      0.0000000E+00
  0.2745000      0.0000000E+00
  0.2750000      0.0000000E+00
  0.2755000      0.0000000E+00
  0.2760000      0.0000000E+00
  0.2765000      0.0000000E+00
  0.2770000      0.0000000E+00
  0.2775000      0.0000000E+00
  0.2780000      0.0000000E+00
  0.2785000      0.0000000E+00
  0.2790000      0.0000000E+00
  0.2795000      0.0000000E+00
  0.2800000      0.0000000E+00
  0.2805000      0.0000000E+00
  0.2810000      0.0000000E+00
  0.2815000      0.0000000E+00
  0.2820000      0.0000000E+00
  0.2825000      0.0000000E+00
  0.2830000      0.0000000E+00
  0.2835000      0.0000000E+00
  0.2840000      0.0000000E+00
  0.2845000      0.0000000E+00
  0.2850000      0.0000000E+00
  0.2855000      0.0000000E+00
  0.2860000      0.0000000E+00
  0.2865000      0.0000000E+00
  0.2870000      0.0000000E+00
  0.2875000      0.0000000E+00
  0.2880000      0.0000000E+00
  0.2885000      0.0000000E+00
  0.2890000      0.0000000E+00
  0.2895000      0.0000000E+00
  0.2900000      0.0000000E+00
  0.2905000      0.0000000E+00
  0.2910000      0.0000000E+00
  0.2915000      0.0000000E+00
  0.2920000      0.0000000E+00
  0.2925000      0.0000000E+00
  0.2930000      0.0000000E+00
  0.2935000      0.0000000E+00
  0.2940000      0.0000000E+00
  0.2945000      0.0000000E+00
  0.2950000      0.0000000E+00
  0.2955000      0.0000000E+00
  0.2960000      0.0000000E+00
  0.2965000      0.0000000E+00
  0.2970000      0.0000000E+00
  0.2975000      0.0000000E+00
  0.2980000      0.0000000E+00
  0.2985000      0.0000000E+00
  0.2990000      0.0000000E+00
  0.2995000      0.0000000E+00
  0.3000000      0.0000000E+00
  0.3005000      0.0000000E+00
  0.3010000      0.0000000E+00
  0.3015000      0.0000000E+00
  0.3020000      0.0000000E+00
  0.3025000      0.0000000E+00
  0.3030000      0.0000000E+00
  0.3035000      0.0000000E+00
  0.3040000      0.0000000E+00
  0.3045000      0.0000000E+00
  0.3050000      0.0000000E+00
  0.3055000      0.0000000E+00
  0.3060000      0.0000000E+00
  0.3065000      0.0000000E+00
  0.3070000      0.0000000E+00
  0.3075000      0.0000000E+00
  0.3080000      0.0000000E+00
  0.3085000      0.0000000E+00
  0.3090000      0.0000000E+00
  0.3095000      0.0000000E+00
  0.3100000      0.0000000E+00
  0.3105000      0.0000000E+00
  0.3110000      0.0000000E+00
  0.3115000      0.0000000E+00
  0.3120000      0.0000000E+00
  0.3125000      0.0000000E+00
  0.3130000      0.0000000E+00
  0.3135000      0.0000000E+00
  0.3140000      0.0000000E+00
  0.3145000      0.0000000E+00
  0.3150000      0.0000000E+00
  0.3155000      0.0000000E+00
  0.3160000      0.0000000E+00
  0.3165000      0.0000000E+00
  0.3170000      0.0000000E+00
  0.3175000      0.0000000E+00
  0.3180000      0.0000000E+00
  0.3185000      0.0000000E+00
  0.3190000      0.0000000E+00
  0.3195000      0.0000000E+00
  0.3200000      0.0000000E+00
  0.3205000      0.0000000E+00
  0.3210000      0.0000000E+00
  0.3215000      0.0000000E+00
  0.3220000      0.0000000E+00
  0.3225000      0.0000000E+00
  0.3230000      0.0000000E+00
  0.3235000      0.0000000E+00
  0.3240000      0.0000000E+00
  0.3245000      0.0000000E+00
  0.3250000      0.0000000E+00
  0.3255000      0.0000000E+00
  0.3260000      1.2065297E-38
  0.3265000      1.6655444E-38
  0.3270000      1.8053227E-38
  0.3275000      2.2383236E-38
  0.3280000      3.7330490E-38
  0.3285000      5.2994277E-38
  0.3290000      6.7457073E-38
  0.3295000      7.9420216E-38
  0.3300000      8.7414428E-38
  0.3305000      9.0138591E-38
  0.3310000      8.6481606E-38
  0.3315000      7.4523855E-38
  0.3320000      5.5908474E-38
  0.3325000      2.9489247E-38
  0.3330000      0.0000000E+00
  0.3335000     -3.9751514E-38
  0.3340000     -8.4431360E-38
  0.3345000     -1.3561241E-37
  0.3350000     -1.9000062E-37
  0.3355000     -2.4638692E-37
  0.3360000     -3.0343764E-37
  0.3365000     -3.5965785E-37
  0.3370000     -4.1345721E-37
  0.3375000     -4.6291202E-37
  0.3380000     -5.0589363E-37
  0.3385000     -5.4015190E-37
  0.3390000     -5.6327409E-37
  0.3395000     -5.7263938E-37
  0.3400000     -5.6552016E-37
  0.3405000     -5.3915718E-37
  0.3410000     -4.9092279E-37
  0.3415000     -4.1749569E-37
  0.3420000     -3.1978593E-37
  0.3425000     -1.9307996E-37
  0.3430000     -3.7817069E-38
  0.3435000      1.4583664E-37
  0.3440000      3.5665304E-37
  0.3445000      5.9178960E-37
  0.3450000      8.4700318E-37
  0.3455000      1.1172018E-36
  0.3460000      1.3958934E-36
  0.3465000      1.6751797E-36
  0.3470000      1.9456977E-36
  0.3475000      2.1968129E-36
  0.3480000      2.4167271E-36
  0.3485000      2.5927483E-36
  0.3490000      2.7116009E-36
  0.3495000      2.7598292E-36
  0.3500000      2.7242691E-36
  0.3505000      2.5925828E-36
  0.3510000      2.3539115E-36
  0.3515000      1.9993318E-36
  0.3520000      1.5225904E-36
  0.3525000      9.2073937E-37
  0.3530000      1.9475533E-37
  0.3535000     -6.4987618E-37
  0.3540000     -1.6026499E-36
  0.3545000     -2.6475045E-36
  0.3550000     -3.7628515E-36
  0.3555000     -4.9213150E-36
  0.3560000     -6.0898636E-36
  0.3565000     -7.2301548E-36
  0.3570000     -8.2991343E-36
  0.3575000     -9.2498957E-36
  0.3580000     -1.0032776E-35
  0.3585000     -1.0596714E-35
  0.3590000     -1.0890856E-35
  0.3595000     -1.0866332E-35
  0.3600000     -1.0478204E-35
  0.3605000     -9.6875364E-36
  0.3610000     -8.4635335E-36
  0.3615000     -6.7856746E-36
  0.3620000     -4.6457995E-36
  0.3625000     -2.0500407E-36
  0.3630000      9.7948018E-37
  0.3635000      4.4032451E-36
  0.3640000      8.1633441E-36
  0.3645000      1.2182957E-35
  0.3650000      1.6366398E-35
  0.3655000      2.0599784E-35
  0.3660000      2.4752370E-35
  0.3665000      2.8678615E-35
  0.3670000      3.2220972E-35
  0.3675000      3.5213403E-35
  0.3680000      3.7485599E-35
  0.3685000      3.8867899E-35
  0.3690000      3.9196764E-35
  0.3695000      3.8320783E-35
  0.3700000      3.6107057E-35
  0.3705000      3.2447803E-35
  0.3710000      2.7267058E-35
  0.3715000      2.0527181E-35
  0.3720000      1.2235011E-35
  0.3725000      2.4473959E-36
  0.3730000     -8.7241748E-36
  0.3735000     -2.1110085E-35
  0.3740000     -3.4480498E-35
  0.3745000     -4.8544909E-35
  0.3750000     -6.2953588E-35
  0.3755000     -7.7301077E-35
  0.3760000     -9.1131853E-35
  0.3765000     -1.0394831E-34
  0.3770000     -1.1522106E-34
  0.3775000     -1.2440147E-34
  0.3780000     -1.3093636E-34
  0.3785000     -1.3428477E-34
  0.3790000     -1.3393624E-34
  0.3795000     -1.2943049E-34
  0.3800000     -1.2037790E-34
  0.3805000     -1.0648031E-34
  0.3810000     -8.7551439E-35
  0.3815000     -6.3536399E-35
  0.3820000     -3.4529326E-35
  0.3825000     -7.8869947E-37
  0.3830000      3.7250759E-35
  0.3835000      7.8970015E-35
  0.3840000      1.2356249E-34
  0.3845000      1.7003602E-34
  0.3850000      2.1722084E-34
  0.3855000      2.6378378E-34
  0.3860000      3.0824915E-34
  0.3865000      3.4902615E-34
  0.3870000      3.8444334E-34
  0.3875000      4.1278898E-34
  0.3880000      4.3235780E-34
  0.3885000      4.4150241E-34
  0.3890000      4.3868944E-34
  0.3895000      4.2255840E-34
  0.3900000      3.9198209E-34
  0.3905000      3.4612727E-34
  0.3910000      2.8451335E-34
  0.3915000      2.0706719E-34
  0.3920000      1.1417245E-34
  0.3925000      6.7109686E-36
  0.3930000     -1.1390592E-34
  0.3935000     -2.4571788E-34
  0.3940000     -3.8620986E-34
  0.3945000     -5.3232197E-34
  0.3950000     -6.8047637E-34
  0.3955000     -8.2662214E-34
  0.3960000     -9.6629869E-34
  0.3965000     -1.0947186E-33
  0.3970000     -1.2068685E-33
  0.3975000     -1.2976278E-33
  0.3980000     -1.3619044E-33
  0.3985000     -1.3947833E-33
  0.3990000     -1.3916872E-33
  0.3995000     -1.3485456E-33
  0.4000000     -1.2619674E-33
  0.4005000     -1.1294127E-33
  0.4010000     -9.4936009E-34
  0.4015000     -7.2146329E-34
  0.4020000     -4.4669065E-34
  0.4025000     -1.2744387E-34
  0.4030000      2.3235143E-34
  0.4035000      6.2718813E-34
  0.4040000      1.0499582E-33
  0.4045000      1.4919754E-33
  0.4050000      1.9430461E-33
  0.4055000      2.3915883E-33
  0.4060000      2.8248040E-33
  0.4065000      3.2289011E-33
  0.4070000      3.5893694E-33
  0.4075000      3.8913051E-33
  0.4080000      4.1197811E-33
  0.4085000      4.2602564E-33
  0.4090000      4.2990190E-33
  0.4095000      4.2236544E-33
  0.4100000      4.0235265E-33
  0.4105000      3.6902625E-33
  0.4110000      3.2182236E-33
  0.4115000      2.6049570E-33
  0.4120000      1.8516031E-33
  0.4125000      9.6325058E-34
  0.4130000     -5.0778859E-35
  0.4135000     -1.1767303E-33
  0.4140000     -2.3963154E-33
  0.4145000     -3.6867250E-33
  0.4150000     -5.0207608E-33
  0.4155000     -6.3671063E-33
  0.4160000     -7.6907298E-33
  0.4165000     -8.9534356E-33
  0.4170000     -1.0114554E-32
  0.4175000     -1.1131771E-32
  0.4180000     -1.1962088E-32
  0.4185000     -1.2562903E-32
  0.4190000     -1.2893189E-32
  0.4195000     -1.2914760E-32
  0.4200000     -1.2593584E-32
  0.4205000     -1.1901138E-32
  0.4210000     -1.0815734E-32
  0.4215000     -9.3238272E-33
  0.4220000     -7.4212264E-33
  0.4225000     -5.1141906E-33
  0.4230000     -2.4203640E-33
  0.4235000      6.3049880E-34
  0.4240000      3.9960460E-33
  0.4245000      7.6211229E-33
  0.4250000      1.1437886E-32
  0.4255000      1.5366261E-32
  0.4260000      1.9314764E-32
  0.4265000      2.3181713E-32
  0.4270000      2.6856828E-32
  0.4275000      3.0223229E-32
  0.4280000      3.3159802E-32
  0.4285000      3.5543934E-32
  0.4290000      3.7254552E-32
  0.4295000      3.8175463E-32
  0.4300000      3.8198873E-32
  0.4305000      3.7229082E-32
  0.4310000      3.5186243E-32
  0.4315000      3.2010081E-32
  0.4320000      2.7663482E-32
  0.4325000      2.2135884E-32
  0.4330000      1.5446298E-32
  0.4335000      7.6458686E-33
  0.4340000     -1.1800989E-33
  0.4345000     -1.0910840E-32
  0.4350000     -2.1389561E-32
  0.4355000     -3.2423790E-32
  0.4360000     -4.3786650E-32
  0.4365000     -5.5219200E-32
  0.4370000     -6.6433804E-32
  0.4375000     -7.7118601E-32
  0.4380000     -8.6943042E-32
  0.4385000     -9.5564552E-32
  0.4390000     -1.0263607E-31
  0.4395000     -1.0781457E-31
  0.4400000     -1.1077032E-31
  0.4405000     -1.1119676E-31
  0.4410000     -1.0882072E-31
  0.4415000     -1.0341292E-31
  0.4420000     -9.4798388E-32
  0.4425000     -8.2866515E-32
  0.4430000     -6.7580440E-32
  0.4435000     -4.8985583E-32
  0.4440000     -2.7216894E-32
  0.4445000     -2.5044559E-33
  0.4450000      2.4822644E-32
  0.4455000      5.4334740E-32
  0.4460000      8.5502385E-32
  0.4465000      1.1769977E-31
  0.4470000      1.5021104E-31
  0.4475000      1.8223951E-31
  0.4480000      2.1291992E-31
  0.4485000      2.4133374E-31
  0.4490000      2.6652729E-31
  0.4495000      2.8753262E-31
  0.4500000      3.0339107E-31
  0.4505000      3.1317857E-31
  0.4510000      3.1603293E-31
  0.4515000      3.1118227E-31
  0.4520000      2.9797371E-31
  0.4525000      2.7590209E-31
  0.4530000      2.4463775E-31
  0.4535000      2.0405249E-31
  0.4540000      1.5424296E-31
  0.4545000      9.5550699E-32
  0.4550000      2.8577617E-32
  0.4555000     -4.5803469E-32
  0.4560000     -1.2644427E-31
  0.4565000     -2.1192325E-31
  0.4570000     -3.0055491E-31
  0.4575000     -3.9040699E-31
  0.4580000     -4.7932564E-31
  0.4585000     -5.6496863E-31
  0.4590000     -6.4484719E-31
  0.4595000     -7.1637485E-31
  0.4600000     -7.7692484E-31
  0.4605000     -8.2389289E-31
  0.4610000     -8.5476645E-31
  0.4615000     -8.6719773E-31
  0.4620000     -8.5908033E-31
  0.4625000     -8.2862609E-31
  0.4630000     -7.7444224E-31
  0.4635000     -6.9560508E-31
  0.4640000     -5.9172900E-31
  0.4645000     -4.6302793E-31
  0.4650000     -3.1036796E-31
  0.4655000     -1.3530724E-31
  0.4660000      5.9877408E-32
  0.4665000      2.7218050E-31
  0.4670000      4.9787504E-31
  0.4675000      7.3253977E-31
  0.4680000      9.7110635E-31
  0.4685000      1.2079285E-30
  0.4690000      1.4368714E-30
  0.4695000      1.6514236E-30
  0.4700000      1.8448282E-30
  0.4705000      2.0102332E-30
  0.4710000      2.1408583E-30
  0.4715000      2.2301753E-30
  0.4720000      2.2720993E-30
  0.4725000      2.2611854E-30
  0.4730000      2.1928294E-30
  0.4735000      2.0634613E-30
  0.4740000      1.8707347E-30
  0.4745000      1.6136989E-30
  0.4750000      1.2929513E-30
  0.4755000      9.1076437E-31
  0.4760000      4.7118036E-31
  0.4765000     -1.9930761E-32
  0.4770000     -5.5485600E-31
  0.4775000     -1.1240700E-30
  0.4780000     -1.7163158E-30
  0.4785000     -2.3187373E-30
  0.4790000     -2.9170663E-30
  0.4795000     -3.4958623E-30
  0.4800000     -4.0388041E-30
  0.4805000     -4.5290304E-30
  0.4810000     -4.9495267E-30
  0.4815000     -5.2835499E-30
  0.4820000     -5.5150802E-30
  0.4825000     -5.6293025E-30
  0.4830000     -5.6130916E-30