  0.0000000E+00  0.0000000E+00
  5.0000002E-04  0.0000000E+00
  1.0000000E-03  0.0000000E+00
  1.5000000E-03  0.0000000E+00
  2.0000001E-03  0.0000000E+00
  2.4999999E-03  0.0000000E+00
  3.0000000E-03  0.0000000E+00
  3.5000001E-03  0.0000000E+00
  4.0000002E-03  0.0000000E+00
  4.4999998E-03  0.0000000E+00
  4.9999999E-03  0.0000000E+00
  5.5000000E-03  0.0000000E+00
  6.0000001E-03  0.0000000E+00
  6.5000001E-03  0.0000000E+00
  7.0000002E-03  0.0000000E+00
  7.4999998E-03  0.0000000E+00
  8.0000004E-03  0.0000000E+00
  8.5000005E-03  0.0000000E+00
  8.9999996E-03  0.0000000E+00
  9.4999997E-03  0.0000000E+00
  9.9999998E-03  0.0000000E+00
  1.0500000E-02  0.0000000E+00
  1.1000000E-02  0.0000000E+00
  1.1500000E-02  0.0000000E+00
  1.2000000E-02  0.0000000E+00
  1.2500000E-02  0.0000000E+00
  1.3000000E-02  0.0000000E+00
  1.3500000E-02  0.0000000E+00
  1.4000000E-02  0.0000000E+00
  1.4500000E-02  0.0000000E+00
  1.5000000E-02  0.0000000E+00
  1.5500000E-02  0.0000000E+00
  1.6000001E-02  0.0000000E+00
  1.6500000E-02  0.0000000E+00
  1.7000001E-02  0.0000000E+00
  1.7500000E-02  0.0000000E+00
  1.7999999E-02  0.0000000E+00
  1.8500000E-02  0.0000000E+00
  1.8999999E-02  0.0000000E+00
  1.9500000E-02  0.0000000E+00
  2.0000000E-02  0.0000000E+00
  2.0500001E-02  0.0000000E+00
  2.1000000E-02  0.0000000E+00
  2.1500001E-02  0.0000000E+00
  2.2000000E-02  0.0000000E+00
  2.2500001E-02  0.0000000E+00
  2.3000000E-02  0.0000000E+00
  2.3499999E-02  0.0000000E+00
  2.4000000E-02  0.0000000E+00
  2.4499999E-02  0.0000000E+00
  2.5000000E-02  0.0000000E+00
  2.5500000E-02  0.0000000E+00
  2.6000001E-02  0.0000000E+00
  2.6500000E-02  0.0000000E+00
  2.7000001E-02  0.0000000E+00
  2.7500000E-02  0.0000000E+00
  2.8000001E-02  0.0000000E+00
  2.8500000E-02  0.0000000E+00
  2.8999999E-02  0.0000000E+00
  2.9500000E-02  0.0000000E+00
  2.9999999E-02  0.0000000E+00
  3.0500000E-02  0.0000000E+00
  3.0999999E-02  0.0000000E+00
  3.1500001E-02  0.0000000E+00
  3.2000002E-02  0.0000000E+00
  3.2499999E-02  0.0000000E+00
  3.3000000E-02  0.0000000E+00
  3.3500001E-02  0.0000000E+00
  3.4000002E-02  0.0000000E+00
  3.4499999E-02  0.0000000E+00
  3.5000000E-02  0.0000000E+00
  3.5500001E-02  0.0000000E+00
  3.5999998E-02  0.0000000E+00
  3.6499999E-02  0.0000000E+00
  3.7000000E-02  0.0000000E+00
  3.7500001E-02  0.0000000E+00
  3.7999999E-02  0.0000000E+00
  3.8500000E-02  0.0000000E+00
  3.9000001E-02  0.0000000E+00
  3.9500002E-02  0.0000000E+00
  3.9999999E-02  0.0000000E+00
  4.0500000E-02  0.0000000E+00
  4.1000001E-02  0.0000000E+00
  4.1499998E-02  0.0000000E+00
  4.1999999E-02  0.0000000E+00
  4.2500000E-02  0.0000000E+00
  4.3000001E-02  0.0000000E+00
  4.3499999E-02  0.0000000E+00
  4.4000000E-02  0.0000000E+00
  4.4500001E-02  0.0000000E+00
  4.5000002E-02  0.0000000E+00
  4.5499999E-02  0.0000000E+00
  4.6000000E-02  0.0000000E+00
  4.6500001E-02  0.0000000E+00
  4.6999998E-02  0.0000000E+00
  4.7499999E-02  0.0000000E+00
  4.8000000E-02  0.0000000E+00
  4.8500001E-02  0.0000000E+00
  4.8999999E-02  0.0000000E+00
  4.9500000E-02  0.0000000E+00
  5.0000001E-02  0.0000000E+00
  5.0500002E-02  0.0000000E+00
  5.0999999E-02  0.0000000E+00
  5.1500000E-02  0.0000000E+00
  5.2000001E-02  0.0000000E+00
  5.2499998E-02  0.0000000E+00
  5.2999999E-02  0.0000000E+00
  5.3500000E-02  0.0000000E+00
  5.4000001E-02  0.0000000E+00
  5.4499999E-02  0.0000000E+00
  5.5000000E-02  0.0000000E+00
  5.5500001E-02  0.0000000E+00
  5.6000002E-02  0.0000000E+00
  5.6499999E-02  0.0000000E+00
  5.7000000E-02  0.0000000E+00
  5.7500001E-02  0.0000000E+00
  5.7999998E-02  0.0000000E+00
  5.8499999E-02  0.0000000E+00
  5.9000000E-02  0.0000000E+00
  5.9500001E-02  0.0000000E+00
  5.9999999E-02  0.0000000E+00
  6.0500000E-02  0.0000000E+00
  6.1000001E-02  0.0000000E+00
  6.1500002E-02  0.0000000E+00
  6.1999999E-02  0.0000000E+00
  6.2500000E-02  0.0000000E+00
  6.3000001E-02  0.0000000E+00
  6.3500002E-02  0.0000000E+00
  6.4000003E-02  0.0000000E+00
  6.4499997E-02  0.0000000E+00
  6.4999998E-02  0.0000000E+00
  6.5499999E-02  0.0000000E+00
  6.6000000E-02  0.0000000E+00
  6.6500001E-02  0.0000000E+00
  6.7000002E-02  0.0000000E+00
  6.7500003E-02  0.0000000E+00
  6.8000004E-02  0.0000000E+00
  6.8499997E-02  0.0000000E+00
  6.8999998E-02  0.0000000E+00
  6.9499999E-02  0.0000000E+00
  7.0000000E-02  0.0000000E+00
  7.0500001E-02  0.0000000E+00
  7.1000002E-02  0.0000000E+00
  7.1500003E-02  0.0000000E+00
  7.1999997E-02  0.0000000E+00
  7.2499998E-02  0.0000000E+00
  7.2999999E-02  0.0000000E+00
  7.3500000E-02  0.0000000E+00
  7.4000001E-02  0.0000000E+00
  7.4500002E-02  0.0000000E+00
  7.5000003E-02  0.0000000E+00
  7.5499997E-02  0.0000000E+00
  7.5999998E-02  0.0000000E+00
  7.6499999E-02  0.0000000E+00
  7.7000000E-02  0.0000000E+00
  7.7500001E-02  0.0000000E+00
  7.8000002E-02  0.0000000E+00
  7.8500003E-02  0.0000000E+00
  7.9000004E-02  0.0000000E+00
  7.9499997E-02  0.0000000E+00
  7.9999998E-02  0.0000000E+00
  8.0499999E-02  0.0000000E+00
  8.1000000E-02  0.0000000E+00
  8.1500001E-02  0.0000000E+00
  8.2000002E-02  0.0000000E+00
  8.2500003E-02  0.0000000E+00
  8.2999997E-02  0.0000000E+00
  8.3499998E-02  0.0000000E+00
  8.3999999E-02  0.0000000E+00
  8.4500000E-02  0.0000000E+00
  8.5000001E-02  0.0000000E+00
  8.5500002E-02  0.0000000E+00
  8.6000003E-02  0.0000000E+00
  8.6499996E-02  0.0000000E+00
  8.6999997E-02  0.0000000E+00
  8.7499999E-02  0.0000000E+00
  8.8000000E-02  0.0000000E+00
  8.8500001E-02  0.0000000E+00
  8.9000002E-02  0.0000000E+00
  8.9500003E-02  0.0000000E+00
  9.0000004E-02  0.0000000E+00
  9.0499997E-02  0.0000000E+00
  9.0999998E-02  0.0000000E+00
  9.1499999E-02  0.0000000E+00
  9.2000000E-02  0.0000000E+00
  9.2500001E-02  0.0000000E+00
  9.3000002E-02  0.0000000E+00
  9.3500003E-02  0.0000000E+00
  9.3999997E-02  0.0000000E+00
  9.4499998E-02  0.0000000E+00
  9.4999999E-02  0.0000000E+00
  9.5500000E-02  0.0000000E+00
  9.6000001E-02  0.0000000E+00
  9.6500002E-02  0.0000000E+00
  9.7000003E-02  0.0000000E+00
  9.7499996E-02  0.0000000E+00
  9.7999997E-02  0.0000000E+00
  9.8499998E-02  0.0000000E+00
  9.8999999E-02  0.0000000E+00
  9.9500000E-02  0.0000000E+00
  0.1000000      0.0000000E+00
  0.1005000      0.0000000E+00
  0.1010000      0.0000000E+00
  0.1015000      0.0000000E+00
  0.1020000      0.0000000E+00
  0.1025000      0.0000000E+00
  0.1030000      0.0000000E+00
  0.1035000      0.0000000E+00
  0.1040000      0.0000000E+00
  0.1045000      0.0000000E+00
  0.1050000      0.0000000E+00
  0.1055000      0.0000000E+00
  0.1060000      0.0000000E+00
  0.1065000      0.0000000E+00
  0.1070000      0.0000000E+00
  0.1075000      0.0000000E+00
  0.1080000      0.0000000E+00
  0.1085000      0.0000000E+00
  0.1090000      0.0000000E+00
  0.1095000      0.0000000E+00
  0.1100000      0.0000000E+00
  0.1105000      0.0000000E+00
  0.1110000      0.0000000E+00
  0.1115000      0.0000000E+00
  0.1120000      0.0000000E+00
  0.1125000      0.0000000E+00
  0.1130000      0.0000000E+00
  0.1135000      0.0000000E+00
  0.1140000      0.0000000E+00
  0.1145000      0.0000000E+00
  0.1150000      0.0000000E+00
  0.1155000      0.0000000E+00
  0.1160000      0.0000000E+00
  0.1165000      0.0000000E+00
  0.1170000      0.0000000E+00
  0.1175000      0.0000000E+00
  0.1180000      0.0000000E+00
  0.1185000      0.0000000E+00
  0.1190000      0.0000000E+00
  0.1195000      0.0000000E+00
  0.1200000      0.0000000E+00
  0.1205000      0.0000000E+00
  0.1210000      0.0000000E+00
  0.1215000      0.0000000E+00
  0.1220000      0.0000000E+00
  0.1225000      0.0000000E+00
  0.1230000      0.0000000E+00
  0.1235000      0.0000000E+00
  0.1240000      0.0000000E+00
  0.1245000      0.0000000E+00
  0.1250000      0.0000000E+00
  0.1255000      0.0000000E+00
  0.1260000      0.0000000E+00
  0.1265000      0.0000000E+00
  0.1270000      0.0000000E+00
  0.1275000      0.0000000E+00
  0.1280000      0.0000000E+00
  0.1285000      0.0000000E+00
  0.1290000      0.0000000E+00
  0.1295000      0.0000000E+00
  0.1300000      0.0000000E+00
  0.1305000      0.0000000E+00
  0.1310000      0.0000000E+00
  0.1315000      0.0000000E+00
  0.1320000      0.0000000E+00
  0.1325000      0.0000000E+00
  0.1330000      0.0000000E+00
  0.1335000      0.0000000E+00
  0.1340000      0.0000000E+00
  0.1345000      0.0000000E+00
  0.1350000      0.0000000E+00
  0.1355000      0.0000000E+00
  0.1360000      0.0000000E+00
  0.1365000      0.0000000E+00
  0.1370000      0.0000000E+00
  0.1375000      0.0000000E+00
  0.1380000      0.0000000E+00
  0.1385000      0.0000000E+00
  0.1390000      0.0000000E+00
  0.1395000      0.0000000E+00
  0.1400000      0.0000000E+00
  0.1405000      0.0000000E+00
  0.1410000      0.0000000E+00
  0.1415000      0.0000000E+00
  0.1420000      0.0000000E+00
  0.1425000      0.0000000E+00
  0.1430000      0.0000000E+00
  0.1435000      0.0000000E+00
  0.1440000      0.0000000E+00
  0.1445000      0.0000000E+00
  0.1450000      0.0000000E+00
  0.1455000      0.0000000E+00
  0.1460000      0.0000000E+00
  0.1465000      0.0000000E+00
  0.1470000      0.0000000E+00
  0.1475000      0.0000000E+00
  0.1480000      0.0000000E+00
  0.1485000      0.0000000E+00
  0.1490000      0.0000000E+00
  0.1495000      0.0000000E+00
  0.1500000      0.0000000E+00
  0.1505000      0.0000000E+00
  0.1510000      0.0000000E+00
  0.1515000      0.0000000E+00
  0.1520000      0.0000000E+00
  0.1525000      0.0000000E+00
  0.1530000      0.0000000E+00
  0.1535000      0.0000000E+00
  0.1540000      0.0000000E+00
  0.1545000      0.0000000E+00
  0.1550000      0.0000000E+00
  0.1555000      0.0000000E+00
  0.1560000      0.0000000E+00
  0.1565000      0.0000000E+00
  0.1570000      0.0000000E+00
  0.1575000      0.0000000E+00
  0.1580000      0.0000000E+00
  0.1585000      0.0000000E+00
  0.1590000      0.0000000E+00
  0.1595000      0.0000000E+00
  0.1600000      0.0000000E+00
  0.1605000      0.0000000E+00
  0.1610000      0.0000000E+00
  0.1615000      0.0000000E+00
  0.1620000      0.0000000E+00
  0.1625000      0.0000000E+00
  0.1630000      0.0000000E+00
  0.1635000      0.0000000E+00
  0.1640000      0.0000000E+00
  0.1645000      0.0000000E+00
  0.1650000      0.0000000E+00
  0.1655000      0.0000000E+00
  0.1660000      0.0000000E+00
  0.1665000      0.0000000E+00
  0.1670000      0.0000000E+00
  0.1675000      0.0000000E+00
  0.1680000      0.0000000E+00
  0.1685000      0.0000000E+00
  0.1690000      0.0000000E+00
  0.1695000      0.0000000E+00
  0.1700000      0.0000000E+00
  0.1705000      0.0000000E+00
  0.1710000      0.0000000E+00
  0.1715000      0.0000000E+00
  0.1720000      0.0000000E+00
  0.1725000      0.0000000E+00
  0.1730000      0.0000000E+00
  0.1735000      0.0000000E+00
  0.1740000      0.0000000E+00
  0.1745000      0.0000000E+00
  0.1750000      0.0000000E+00
  0.1755000      0.0000000E+00
  0.1760000      0.0000000E+00
  0.1765000      0.0000000E+00
  0.1770000      0.0000000E+00
  0.1775000      0.0000000E+00
  0.1780000      0.0000000E+00
  0.1785000      0.0000000E+00
  0.1790000      0.0000000E+00
  0.1795000      0.0000000E+00
  0.1800000      0.0000000E+00
  0.1805000      0.0000000E+00
  0.1810000      0.0000000E+00
  0.1815000      0.0000000E+00
  0.1820000      0.0000000E+00
  0.1825000      0.0000000E+00
  0.1830000      0.0000000E+00
  0.1835000      0.0000000E+00
  0.1840000      0.0000000E+00
  0.1845000      0.0000000E+00
  0.1850000      0.0000000E+00
  0.1855000      0.0000000E+00
  0.1860000      0.0000000E+00
  0.1865000      0.0000000E+00
  0.1870000      0.0000000E+00
  0.1875000      0.0000000E+00
  0.1880000      0.0000000E+00
  0.1885000      0.0000000E+00
  0.1890000      0.0000000E+00
  0.1895000      0.0000000E+00
  0.1900000      0.0000000E+00
  0.1905000      0.0000000E+00
  0.1910000      0.0000000E+00
  0.1915000      0.0000000E+00
  0.1920000      0.0000000E+00
  0.1925000      0.0000000E+00
  0.1930000      0.0000000E+00
  0.1935000      0.0000000E+00
  0.1940000      0.0000000E+00
  0.1945000      0.0000000E+00
  0.1950000      0.0000000E+00
  0.1955000      0.0000000E+00
  0.1960000      0.0000000E+00
  0.1965000      0.0000000E+00
  0.1970000      0.0000000E+00
  0.1975000      0.0000000E+00
  0.1980000      0.0000000E+00
  0.1985000      0.0000000E+00
  0.1990000      0.0000000E+00
  0.1995000      0.0000000E+00
  0.2000000      0.0000000E+00
  0.2005000      0.0000000E+00
  0.2010000      0.0000000E+00
  0.2015000      0.0000000E+00
  0.2020000      0.0000000E+00
  0.2025000      0.0000000E+00
  0.2030000      0.0000000E+00
  0.2035000      0.0000000E+00
  0.2040000      0.0000000E+00
  0.2045000      0.0000000E+00
  0.2050000      0.0000000E+00
  0.2055000      0.0000000E+00
  0.2060000      0.0000000E+00
  0.2065000      0.0000000E+00
  0.2070000      0.0000000E+00
  0.2075000      0.0000000E+00
  0.2080000      0.0000000E+00
  0.2085000      0.0000000E+00
  0.2090000      0.0000000E+00
  0.2095000      0.0000000E+00
  0.2100000      0.0000000E+00
  0.2105000      0.0000000E+00
  0.2110000      0.0000000E+00
  0.2115000      0.0000000E+00
  0.2120000      0.0000000E+00
  0.2125000      0.0000000E+00
  0.2130000      0.0000000E+00
  0.2135000      0.0000000E+00
  0.2140000      0.0000000E+00
  0.2145000      0.0000000E+00
  0.2150000      0.0000000E+00
  0.2155000      0.0000000E+00
  0.2160000      0.0000000E+00
  0.2165000      0.0000000E+00
  0.2170000      0.0000000E+00
  0.2175000      0.0000000E+00
  0.2180000      0.0000000E+00
  0.2185000      0.0000000E+00
  0.2190000      0.0000000E+00
  0.2195000      0.0000000E+00
  0.2200000      0.0000000E+00
  0.2205000      0.0000000E+00
  0.2210000      0.0000000E+00
  0.2215000      0.0000000E+00
  0.2220000      0.0000000E+00
  0.2225000      0.0000000E+00
  0.2230000      0.0000000E+00
  0.2235000      0.0000000E+00
  0.2240000      0.0000000E+00
  0.2245000      0.0000000E+00
  0.2250000      0.0000000E+00
  0.2255000      0.0000000E+00
  0.2260000      0.0000000E+00
  0.2265000      0.0000000E+00
  0.2270000      0.0000000E+00
  0.2275000      0.0000000E+00
  0.2280000      0.0000000E+00
  0.2285000      0.0000000E+00
  0.2290000      0.0000000E+00
  0.2295000      0.0000000E+00
  0.2300000      0.0000000E+00
  0.2305000      0.0000000E+00
  0.2310000      0.0000000E+00
  0.2315000      0.0000000E+00
  0.2320000      0.0000000E+00
  0.2325000      0.0000000E+00
  0.2330000      0.0000000E+00
  0.2335000      0.0000000E+00
  0.2340000      0.0000000E+00
  0.2345000      0.0000000E+00
  0.2350000      0.0000000E+00
  0.2355000      0.0000000E+00
  0.2360000      0.0000000E+00
  0.2365000      0.0000000E+00
  0.2370000      0.0000000E+00
  0.2375000      0.0000000E+00
  0.2380000      0.0000000E+00
  0.2385000      0.0000000E+00
  0.2390000      0.0000000E+00
  0.2395000      0.0000000E+00
  0.2400000      0.0000000E+00
  0.2405000      0.0000000E+00
  0.2410000      0.0000000E+00
  0.2415000      0.0000000E+00
  0.2420000      0.0000000E+00
  0.2425000      0.0000000E+00
  0.2430000      0.0000000E+00
  0.2435000      0.0000000E+00
  0.2440000      0.0000000E+00
  0.2445000      0.0000000E+00
  0.2450000      0.0000000E+00
  0.2455000      0.0000000E+00
  0.2460000      0.0000000E+00
  0.2465000      0.0000000E+00
  0.2470000      0.0000000E+00
  0.2475000      0.0000000E+00
  0.2480000      0.0000000E+00
  0.2485000      0.0000000E+00
  0.2490000      0.0000000E+00
  0.2495000      0.0000000E+00
  0.2500000      0.0000000E+00
  0.2505000      0.0000000E+00
  0.2510000      0.0000000E+00
  0.2515000      0.0000000E+00
  0.2520000      0.0000000E+00
  0.2525000      0.0000000E+00
  0.2530000      0.0000000E+00
  0.2535000      0.0000000E+00
  0.2540000      0.0000000E+00
  0.2545000      0.0000000E+00
  0.2550000      0.0000000E+00
  0.2555000      0.0000000E+00
  0.2560000      0.0000000E+00
  0.2565000      0.0000000E+00
  0.2570000      0.0000000E+00
  0.2575000      0.0000000E+00
  0.2580000      0.0000000E+00
  0.2585000      0.0000000E+00
  0.2590000      0.0000000E+00
  0.2595000      0.0000000E+00
  0.2600000      0.0000000E+00
  0.2605000      0.0000000E+00
  0.2610000      0.0000000E+00
  0.2615000      0.0000000E+00
  0.2620000      0.0000000E+00
  0.2625000      0.0000000E+00
  0.2630000      0.0000000E+00
  0.2635000      0.0000000E+00
  0.2640000      0.0000000E+00
  0.2645000      0.0000000E+00
  0.2650000      0.0000000E+00
  0.2655000      0.0000000E+00
  0.2660000      0.0000000E+00
  0.2665000      0.0000000E+00
  0.2670000      0.0000000E+00
  0.2675000      0.0000000E+00
  0.2680000      0.0000000E+00
  0.2685000      0.0000000E+00
  0.2690000      0.0000000E+00
  0.2695000      0.0000000E+00
  0.2700000      0.0000000E+00
  0.2705000      0.0000000E+00
  0.2710000      0.0000000E+00
  0.2715000      0.0000000E+00
  0.2720000      0.0000000E+00
  0.2725000     -2.9840846E-37
  0.2730000     -3.2164905E-36
  0.2735000     -6.6558127E-36
  0.2740000     -4.3164965E-36
  0.2745000     -1.1916171E-36
  0.2750000      6.6914908E-36
  0.2755000      1.4930499E-35
  0.2760000      3.2075651E-35
  0.2765000      2.8692640E-35
  0.2770000      2.4028297E-35
  0.2775000      1.3740464E-35
  0.2780000     -2.6513263E-36
  0.2785000     -1.9577779E-35
  0.2790000     -3.1219351E-35
  0.2795000     -3.7569101E-35
  0.2800000     -3.9247759E-35
  0.2805000     -7.8719299E-36
  0.2810000     -1.9216248E-35
  0.2815000     -1.6518958E-36
  0.2820000     -1.9000669E-36
  0.2825000      2.6685449E-35
  0.2830000      8.9216554E-35
  0.2835000      1.1085804E-34
  0.2840000      7.9954709E-35
  0.2845000     -7.8774322E-36
  0.2850000     -6.5839215E-35
  0.2855000     -2.6984534E-34
  0.2860000     -3.4971845E-34
  0.2865000     -5.2975820E-34
  0.2870000     -3.6461775E-34
  0.2875000     -2.5263757E-34
  0.2880000     -1.4879429E-34
  0.2885000      4.3312719E-34
  0.2890000      6.1868325E-34
  0.2895000      5.9501260E-34
  0.2900000      6.2515944E-34
  0.2905000      4.3933289E-34
  0.2910000      6.5918228E-35
  0.2915000      4.3531311E-34
  0.2920000     -7.0853381E-34
  0.2925000     -4.1013586E-34
  0.2930000     -1.1510054E-33
  0.2935000     -1.2960358E-33
  0.2940000     -1.1524543E-33
  0.2945000     -7.4659724E-34
  0.2950000     -9.0613056E-34
  0.2955000     -1.5063361E-33
  0.2960000     -7.0194007E-34
  0.2965000     -1.7206930E-33
  0.2970000     -1.2761798E-33
  0.2975000     -3.7794260E-34
  0.2980000      5.5127769E-34
  0.2985000      2.8705838E-33
  0.2990000      4.3008220E-33
  0.2995000      4.0236723E-33
  0.3000000      6.7580228E-33
  0.3005000      5.2832641E-33
  0.3010000      5.7721934E-33
  0.3015000      5.2772518E-33
  0.3020000      3.1232499E-33
  0.3025000      1.4634406E-33
  0.3030000     -1.3654694E-34
  0.3035000     -1.9056642E-33
  0.3040000     -2.8039669E-33
  0.3045000     -4.9813259E-33
  0.3050000     -5.0735758E-33
  0.3055000     -6.1177373E-33
  0.3060000     -6.5957399E-33
  0.3065000     -7.8427242E-33
  0.3070000     -8.4503872E-33
  0.3075000     -9.3721915E-33
  0.3080000     -9.4778155E-33
  0.3085000     -9.0642964E-33
  0.3090000     -1.1416119E-32
  0.3095000     -1.3874181E-32
  0.3100000     -1.6962727E-32
  0.3105000     -1.9804699E-32
  0.3110000     -1.9277677E-32
  0.3115000     -1.5546251E-32
  0.3120000     -9.7077532E-33
  0.3125000     -2.3603475E-33
  0.3130000      6.3784535E-33
  0.3135000      1.6301451E-32
  0.3140000      2.5920755E-32
  0.3145000      3.8541221E-32
  0.3150000      5.0170028E-32
  0.3155000      6.0557302E-32
  0.3160000      7.0930534E-32
  0.3165000      7.8327350E-32
  0.3170000      8.2904372E-32
  0.3175000      8.4255033E-32
  0.3180000      8.2049159E-32
  0.3185000      7.5952781E-32
  0.3190000      6.6092011E-32
  0.3195000      5.3050295E-32
  0.3200000      3.6603821E-32
  0.3205000      1.4758834E-32
  0.3210000     -5.4168653E-33
  0.3215000     -2.8330613E-32
  0.3220000     -5.2689189E-32
  0.3225000     -7.7862906E-32
  0.3230000     -1.0339620E-31
  0.3235000     -1.2906149E-31
  0.3240000     -1.5408031E-31
  0.3245000     -1.7793233E-31
  0.3250000     -1.9991016E-31
  0.3255000     -2.1956481E-31
  0.3260000     -2.3600969E-31
  0.3265000     -2.4850863E-31
  0.3270000     -2.5622206E-31
  0.3275000     -2.5824746E-31
  0.3280000     -2.5364330E-31
  0.3285000     -2.4117173E-31
  0.3290000     -2.2006533E-31
  0.3295000     -1.8890535E-31
  0.3300000     -1.4714682E-31
  0.3305000     -9.3589728E-32
  0.3310000     -2.7881847E-32
  0.3315000      4.9849195E-32
  0.3320000      1.3977781E-31
  0.3325000      2.4018561E-31
  0.3330000      3.4952579E-31
  0.3335000      4.6529687E-31
  0.3340000      5.8458472E-31
  0.3345000      7.0368534E-31
  0.3350000      8.1834813E-31
  0.3355000      9.2389474E-31
  0.3360000      1.0151041E-30
  0.3365000      1.0865432E-30
  0.3370000      1.1325913E-30
  0.3375000      1.1475101E-30
  0.3380000      1.1258662E-30
  0.3385000      1.0626756E-30
  0.3390000      9.5362468E-31
  0.3395000      7.9559094E-31
  0.3400000      5.8666027E-31
  0.3405000      3.2675068E-31
  0.3410000      1.7279683E-32
  0.3415000     -3.3817176E-31
  0.3420000     -7.3419976E-31
  0.3425000     -1.1631519E-30
  0.3430000     -1.6155639E-30
  0.3435000     -2.0800109E-30
  0.3440000     -2.5432208E-30
  0.3445000     -2.9902996E-30
  0.3450000     -3.4045777E-30
  0.3455000     -3.7691536E-30
  0.3460000     -4.0653297E-30
  0.3465000     -4.2742931E-30
  0.3470000     -4.3772461E-30
  0.3475000     -4.3562843E-30
  0.3480000     -4.1949207E-30
  0.3485000     -3.8787104E-30
  0.3490000     -3.3961939E-30
  0.3495000     -2.7395938E-30
  0.3500000     -1.9055128E-30
  0.3505000     -8.9560444E-31
  0.3510000      2.8285862E-31
  0.3515000      1.6165052E-30
  0.3520000      3.0854316E-30
  0.3525000      4.6630428E-30
  0.3530000      6.3156750E-30
  0.3535000      8.0029288E-30
  0.3540000      9.6777686E-30
  0.3545000      1.1286823E-29
  0.3550000      1.2771361E-29
  0.3555000      1.4068327E-29
  0.3560000      1.5111808E-29
  0.3565000      1.5834379E-29
  0.3570000      1.6169455E-29
  0.3575000      1.6053235E-29
  0.3580000      1.5427185E-29
  0.3585000      1.4240705E-29
  0.3590000      1.2453559E-29
  0.3595000      1.0038845E-29
  0.3600000      6.9852644E-30
  0.3605000      3.2998583E-30
  0.3610000     -9.8989169E-31
  0.3615000     -5.8340390E-30
  0.3620000     -1.1158648E-29
  0.3625000     -1.6865060E-29
  0.3630000     -2.2829447E-29
  0.3635000     -2.8903195E-29
  0.3640000     -3.4914630E-29
  0.3645000     -4.0670753E-29
  0.3650000     -4.5960946E-29
  0.3655000     -5.0560951E-29
  0.3660000     -5.4238214E-29
  0.3665000     -5.6757697E-29
  0.3670000     -5.7889283E-29
  0.3675000     -5.7415161E-29
  0.3680000     -5.5138231E-29
  0.3685000     -5.0890929E-29
  0.3690000     -4.4544120E-29
  0.3695000     -3.6016241E-29
  0.3700000     -2.5281694E-29
  0.3705000     -1.2379253E-29
  0.3710000      2.5811183E-30
  0.3715000      1.9412175E-29
  0.3720000      3.7845498E-29
  0.3725000      5.7529110E-29
  0.3730000      7.8027595E-29
  0.3735000      9.8825021E-29
  0.3740000      1.1933035E-28
  0.3745000      1.3888608E-28
  0.3750000      1.5677958E-28
  0.3755000      1.7225862E-28
  0.3760000      1.8454867E-28
  0.3765000      1.9287420E-28
  0.3770000      1.9648199E-28
  0.3775000      1.9466755E-28
  0.3780000      1.8680225E-28
  0.3785000      1.7236245E-28
  0.3790000      1.5095930E-28
  0.3795000      1.2236653E-28
  0.3800000      8.6549011E-29
  0.3805000      4.3686666E-29
  0.3810000     -5.8039035E-30
  0.3815000     -6.1252727E-29
  0.3820000     -1.2172573E-28
  0.3825000     -1.8602123E-28
  0.3830000     -2.5267356E-28
  0.3835000     -3.1996567E-28
  0.3840000     -3.8595070E-28
  0.3845000     -4.4848476E-28
  0.3850000     -5.0526719E-28
  0.3855000     -5.5389365E-28
  0.3860000     -5.9191560E-28
  0.3865000     -6.1691157E-28
  0.3870000     -6.2656457E-28
  0.3875000     -6.1874554E-28
  0.3880000     -5.9160162E-28
  0.3885000     -5.4364529E-28
  0.3890000     -4.7384661E-28
  0.3895000     -3.8171532E-28
  0.3900000     -2.6738263E-28
  0.3905000     -1.3166862E-28
  0.3910000      2.3857180E-29
  0.3915000      1.9684388E-28
  0.3920000      3.8412945E-28
  0.3925000      5.8175184E-28
  0.3930000      7.8497197E-28
  0.3935000      9.8833236E-28
  0.3940000      1.1857346E-27
  0.3945000      1.3705634E-27
  0.3950000      1.5358180E-27
  0.3955000      1.6742935E-27
  0.3960000      1.7787694E-27
  0.3965000      1.8422402E-27
  0.3970000      1.8581413E-27
  0.3975000      1.8206157E-27
  0.3980000      1.7247646E-27
  0.3985000      1.5669104E-27
  0.3990000      1.3448469E-27
  0.3995000      1.0580715E-27
  0.4000000      7.0799828E-28
  0.4005000      2.9812002E-28
  0.4010000     -1.6585807E-28
  0.4015000     -6.7595119E-28
  0.4020000     -1.2218843E-27
  0.4025000     -1.7911549E-27
  0.4030000     -2.3691667E-27
  0.4035000     -2.9394583E-27
  0.4040000     -3.4839861E-27
  0.4045000     -3.9835141E-27
  0.4050000     -4.4180748E-27
  0.4055000     -4.7675032E-27
  0.4060000     -5.0120312E-27
  0.4065000     -5.1329272E-27
  0.4070000     -5.1132134E-27
  0.4075000     -4.9383471E-27
  0.4080000     -4.5969540E-27
  0.4085000     -4.0814885E-27
  0.4090000     -3.3889256E-27
  0.4095000     -2.5212842E-27
  0.4100000     -1.4861533E-27
  0.4105000     -2.9703670E-28
  0.4110000      1.0264264E-27
  0.4115000      2.4584126E-27
  0.4120000      3.9670397E-27
  0.4125000      5.5146920E-27
  0.4130000      7.0585879E-27
  0.4135000      8.5515064E-27
  0.4140000      9.9427874E-27
  0.4145000      1.1179517E-26
  0.4150000      1.2207890E-26
  0.4155000      1.2974770E-26
  0.4160000      1.3429386E-26
  0.4165000      1.3525123E-26
  0.4170000      1.3221386E-26
  0.4175000      1.2485451E-26
  0.4180000      1.1294333E-26
  0.4185000      9.6364429E-27
  0.4190000      7.5131690E-27
  0.4195000      4.9401682E-27
  0.4200000      1.9484400E-27
  0.4205000     -1.4151368E-27
  0.4210000     -5.0874714E-27
  0.4215000     -8.9894929E-27
  0.4220000     -1.3026922E-26
  0.4225000     -1.7091567E-26
  0.4230000     -2.1063016E-26
  0.4235000     -2.4811164E-26
  0.4240000     -2.8199041E-26
  0.4245000     -3.1086213E-26
  0.4250000     -3.3332649E-26
  0.4255000     -3.4802987E-26
  0.4260000     -3.5371081E-26
  0.4265000     -3.4924632E-26
  0.4270000     -3.3370089E-26
  0.4275000     -3.0637271E-26
  0.4280000     -2.6683883E-26
  0.4285000     -2.1499765E-26
  0.4290000     -1.5110213E-26
  0.4295000     -7.5792492E-27
  0.4300000      9.8859640E-28
  0.4305000      1.0447100E-26
  0.4310000      2.0608299E-26
  0.4315000      3.1243819E-26
  0.4320000      4.2087319E-26
  0.4325000      5.2838544E-26
  0.4330000      6.3168450E-26
  0.4335000      7.2725839E-26
  0.4340000      8.1145419E-26
  0.4345000      8.8056796E-26
  0.4350000      9.3094572E-26
  0.4355000      9.5909807E-26
  0.4360000      9.6181182E-26
  0.4365000      9.3627380E-26
  0.4370000      8.8019239E-26
  0.4375000      7.9191454E-26
  0.4380000      6.7053621E-26
  0.4385000      5.1601145E-26
  0.4390000      3.2923433E-26
  0.4395000      1.1211129E-26
  0.4400000     -1.3238456E-26
  0.4405000     -4.0019317E-26
  0.4410000     -6.8616964E-26
  0.4415000     -9.8411285E-26
  0.4420000     -1.2868324E-25
  0.4425000     -1.5862469E-25
  0.4430000     -1.8735195E-25
  0.4435000     -2.1392157E-25
  0.4440000     -2.3735079E-25
  0.4445000     -2.5664046E-25
  0.4450000     -2.7080007E-25
  0.4455000     -2.7887616E-25
  0.4460000     -2.7998165E-25
  0.4465000     -2.7332667E-25
  0.4470000     -2.5824991E-25
  0.4475000     -2.3424902E-25
  0.4480000     -2.0101111E-25
  0.4485000     -1.5843957E-25
  0.4490000     -1.0667947E-25
  0.4495000     -4.6138884E-26
  0.4500000      2.2496609E-26
  0.4505000      9.8251362E-26
  0.4510000      1.7985780E-25
  0.4515000      2.6575790E-25
  0.4520000      3.5411475E-25
  0.4525000      4.4283190E-25
  0.4530000      5.2958086E-25
  0.4535000      6.1183810E-25
  0.4540000      6.8692903E-25
  0.4545000      7.5208288E-25
  0.4550000      8.0449233E-25
  0.4555000      8.4138415E-25
  0.4560000      8.6008942E-25
  0.4565000      8.5812772E-25
  0.4570000      8.3328580E-25
  0.4575000      7.8370550E-25
  0.4580000      7.0796120E-25
  0.4585000      6.0514861E-25
  0.4590000      4.7495619E-25
  0.4595000      3.1773816E-25
  0.4600000      1.3457203E-25
  0.4605000     -7.2687955E-26
  0.4610000     -3.0138177E-25
  0.4615000     -5.4801945E-25
  0.4620000     -8.0828754E-25
  0.4625000     -1.0770654E-24
  0.4630000     -1.3484674E-24
  0.4635000     -1.6159129E-24
  0.4640000     -1.8722127E-24
  0.4645000     -2.1096821E-24
  0.4650000     -2.3202823E-24
  0.4655000     -2.4957804E-24
  0.4660000     -2.6279294E-24
  0.4665000     -2.7086719E-24
  0.4670000     -2.7303645E-24
  0.4675000     -2.6860010E-24
  0.4680000     -2.5694572E-24
  0.4685000     -2.3757329E-24
  0.4690000     -2.1012066E-24
  0.4695000     -1.7438443E-24
  0.4700000     -1.3034546E-24
  0.4705000     -7.8185774E-25
  0.4710000     -1.8307784E-25
  0.4715000      4.8653608E-25
  0.4720000      1.2182065E-24
  0.4725000      2.0006891E-24
  0.4730000      2.8202817E-24
  0.4735000      3.6609039E-24
  0.4740000      4.5042317E-24
  0.4745000      5.3299044E-24
  0.4750000      6.1158173E-24
  0.4755000      6.8384687E-24
  0.4760000      7.4733842E-24
  0.4765000      7.9956180E-24
  0.4770000      8.3803171E-24
  0.4775000      8.6033194E-24
  0.4780000      8.6418639E-24
  0.4785000      8.4752384E-24
  0.4790000      8.0855442E-24
  0.4795000      7.4584124E-24
  0.4800000      6.5837436E-24
  0.4805000      5.4563852E-24
  0.4810000      4.0768012E-24
  0.4815000      2.4516231E-24
  0.4820000      5.9413799E-25
  0.4825000     -1.4753025E-24
  0.4830000     -3.7291084E-24