  0.0000000E+00  0.0000000E+00
  5.0000002E-04  0.0000000E+00
  1.0000000E-03  0.0000000E+00
  1.5000000E-03  0.0000000E+00
  2.0000001E-03  0.0000000E+00
  2.4999999E-03  0.0000000E+00
  3.0000000E-03  0.0000000E+00
  3.5000001E-03  0.0000000E+00
  4.0000002E-03  0.0000000E+00
  4.4999998E-03  0.0000000E+00
  4.9999999E-03  0.0000000E+00
  5.5000000E-03  0.0000000E+00
  6.0000001E-03  0.0000000E+00
  6.5000001E-03  0.0000000E+00
  7.0000002E-03  0.0000000E+00
  7.4999998E-03  0.0000000E+00
  8.0000004E-03  0.0000000E+00
  8.5000005E-03  0.0000000E+00
  8.9999996E-03  0.0000000E+00
  9.4999997E-03  0.0000000E+00
  9.9999998E-03  0.0000000E+00
  1.0500000E-02  0.0000000E+00
  1.1000000E-02  0.0000000E+00
  1.1500000E-02  0.0000000E+00
  1.2000000E-02  0.0000000E+00
  1.2500000E-02  0.0000000E+00
  1.3000000E-02  0.0000000E+00
  1.3500000E-02  0.0000000E+00
  1.4000000E-02  0.0000000E+00
  1.4500000E-02  0.0000000E+00
  1.5000000E-02  0.0000000E+00
  1.5500000E-02  0.0000000E+00
  1.6000001E-02  0.0000000E+00
  1.6500000E-02  0.0000000E+00
  1.7000001E-02  0.0000000E+00
  1.7500000E-02  0.0000000E+00
  1.7999999E-02  0.0000000E+00
  1.8500000E-02  0.0000000E+00
  1.8999999E-02  0.0000000E+00
  1.9500000E-02  0.0000000E+00
  2.0000000E-02  0.0000000E+00
  2.0500001E-02  0.0000000E+00
  2.1000000E-02  0.0000000E+00
  2.1500001E-02  0.0000000E+00
  2.2000000E-02  0.0000000E+00
  2.2500001E-02  0.0000000E+00
  2.3000000E-02  0.0000000E+00
  2.3499999E-02  0.0000000E+00
  2.4000000E-02  0.0000000E+00
  2.4499999E-02  0.0000000E+00
  2.5000000E-02  0.0000000E+00
  2.5500000E-02  0.0000000E+00
  2.6000001E-02  0.0000000E+00
  2.6500000E-02  0.0000000E+00
  2.7000001E-02  0.0000000E+00
  2.7500000E-02  0.0000000E+00
  2.8000001E-02  0.0000000E+00
  2.8500000E-02  0.0000000E+00
  2.8999999E-02  0.0000000E+00
  2.9500000E-02  0.0000000E+00
  2.9999999E-02  0.0000000E+00
  3.0500000E-02  0.0000000E+00
  3.0999999E-02  0.0000000E+00
  3.1500001E-02  0.0000000E+00
  3.2000002E-02  0.0000000E+00
  3.2499999E-02  0.0000000E+00
  3.3000000E-02  0.0000000E+00
  3.3500001E-02  0.0000000E+00
  3.4000002E-02  0.0000000E+00
  3.4499999E-02  0.0000000E+00
  3.5000000E-02  0.0000000E+00
  3.5500001E-02  0.0000000E+00
  3.5999998E-02  0.0000000E+00
  3.6499999E-02  0.0000000E+00
  3.7000000E-02  0.0000000E+00
  3.7500001E-02  0.0000000E+00
  3.7999999E-02  0.0000000E+00
  3.8500000E-02  0.0000000E+00
  3.9000001E-02  0.0000000E+00
  3.9500002E-02  0.0000000E+00
  3.9999999E-02  0.0000000E+00
  4.0500000E-02  0.0000000E+00
  4.1000001E-02  0.0000000E+00
  4.1499998E-02  0.0000000E+00
  4.1999999E-02  0.0000000E+00
  4.2500000E-02  0.0000000E+00
  4.3000001E-02  0.0000000E+00
  4.3499999E-02  0.0000000E+00
  4.4000000E-02  0.0000000E+00
  4.4500001E-02  0.0000000E+00
  4.5000002E-02  0.0000000E+00
  4.5499999E-02  0.0000000E+00
  4.6000000E-02  0.0000000E+00
  4.6500001E-02  0.0000000E+00
  4.6999998E-02  0.0000000E+00
  4.7499999E-02  0.0000000E+00
  4.8000000E-02  0.0000000E+00
  4.8500001E-02  0.0000000E+00
  4.8999999E-02  0.0000000E+00
  4.9500000E-02  0.0000000E+00
  5.0000001E-02  0.0000000E+00
  5.0500002E-02  0.0000000E+00
  5.0999999E-02  0.0000000E+00
  5.1500000E-02  0.0000000E+00
  5.2000001E-02  0.0000000E+00
  5.2499998E-02  0.0000000E+00
  5.2999999E-02  0.0000000E+00
  5.3500000E-02  0.0000000E+00
  5.4000001E-02  0.0000000E+00
  5.4499999E-02  0.0000000E+00
  5.5000000E-02  0.0000000E+00
  5.5500001E-02  0.0000000E+00
  5.6000002E-02  0.0000000E+00
  5.6499999E-02  0.0000000E+00
  5.7000000E-02  0.0000000E+00
  5.7500001E-02  0.0000000E+00
  5.7999998E-02  0.0000000E+00
  5.8499999E-02  0.0000000E+00
  5.9000000E-02  0.0000000E+00
  5.9500001E-02  0.0000000E+00
  5.9999999E-02  0.0000000E+00
  6.0500000E-02  0.0000000E+00
  6.1000001E-02  0.0000000E+00
  6.1500002E-02  0.0000000E+00
  6.1999999E-02  0.0000000E+00
  6.2500000E-02  0.0000000E+00
  6.3000001E-02  0.0000000E+00
  6.3500002E-02  0.0000000E+00
  6.4000003E-02  0.0000000E+00
  6.4499997E-02  0.0000000E+00
  6.4999998E-02  0.0000000E+00
  6.5499999E-02  0.0000000E+00
  6.6000000E-02  0.0000000E+00
  6.6500001E-02  0.0000000E+00
  6.7000002E-02  0.0000000E+00
  6.7500003E-02  0.0000000E+00
  6.8000004E-02  0.0000000E+00
  6.8499997E-02  0.0000000E+00
  6.8999998E-02  0.0000000E+00
  6.9499999E-02  0.0000000E+00
  7.0000000E-02  0.0000000E+00
  7.0500001E-02  0.0000000E+00
  7.1000002E-02  0.0000000E+00
  7.1500003E-02  0.0000000E+00
  7.1999997E-02  0.0000000E+00
  7.2499998E-02  0.0000000E+00
  7.2999999E-02  0.0000000E+00
  7.3500000E-02  0.0000000E+00
  7.4000001E-02  0.0000000E+00
  7.4500002E-02  0.0000000E+00
  7.5000003E-02  0.0000000E+00
  7.5499997E-02  0.0000000E+00
  7.5999998E-02  0.0000000E+00
  7.6499999E-02  0.0000000E+00
  7.7000000E-02  0.0000000E+00
  7.7500001E-02  0.0000000E+00
  7.8000002E-02  0.0000000E+00
  7.8500003E-02  0.0000000E+00
  7.9000004E-02  0.0000000E+00
  7.9499997E-02  0.0000000E+00
  7.9999998E-02  0.0000000E+00
  8.0499999E-02  0.0000000E+00
  8.1000000E-02  0.0000000E+00
  8.1500001E-02  0.0000000E+00
  8.2000002E-02  0.0000000E+00
  8.2500003E-02  0.0000000E+00
  8.2999997E-02  0.0000000E+00
  8.3499998E-02  0.0000000E+00
  8.3999999E-02  0.0000000E+00
  8.4500000E-02  0.0000000E+00
  8.5000001E-02  0.0000000E+00
  8.5500002E-02  0.0000000E+00
  8.6000003E-02  0.0000000E+00
  8.6499996E-02  0.0000000E+00
  8.6999997E-02  0.0000000E+00
  8.7499999E-02  0.0000000E+00
  8.8000000E-02  0.0000000E+00
  8.8500001E-02  0.0000000E+00
  8.9000002E-02  0.0000000E+00
  8.9500003E-02  0.0000000E+00
  9.0000004E-02  0.0000000E+00
  9.0499997E-02  0.0000000E+00
  9.0999998E-02  0.0000000E+00
  9.1499999E-02  0.0000000E+00
  9.2000000E-02  0.0000000E+00
  9.2500001E-02  0.0000000E+00
  9.3000002E-02  0.0000000E+00
  9.3500003E-02  0.0000000E+00
  9.3999997E-02  0.0000000E+00
  9.4499998E-02  0.0000000E+00
  9.4999999E-02  0.0000000E+00
  9.5500000E-02  0.0000000E+00
  9.6000001E-02  0.0000000E+00
  9.6500002E-02  0.0000000E+00
  9.7000003E-02  0.0000000E+00
  9.7499996E-02  0.0000000E+00
  9.7999997E-02  0.0000000E+00
  9.8499998E-02  0.0000000E+00
  9.8999999E-02  0.0000000E+00
  9.9500000E-02  0.0000000E+00
  0.1000000      0.0000000E+00
  0.1005000      0.0000000E+00
  0.1010000      0.0000000E+00
  0.1015000      0.0000000E+00
  0.1020000      0.0000000E+00
  0.1025000      0.0000000E+00
  0.1030000      0.0000000E+00
  0.1035000      0.0000000E+00
  0.1040000      0.0000000E+00
  0.1045000      0.0000000E+00
  0.1050000      0.0000000E+00
  0.1055000      0.0000000E+00
  0.1060000      0.0000000E+00
  0.1065000      0.0000000E+00
  0.1070000      0.0000000E+00
  0.1075000      0.0000000E+00
  0.1080000      0.0000000E+00
  0.1085000      0.0000000E+00
  0.1090000      0.0000000E+00
  0.1095000      0.0000000E+00
  0.1100000      0.0000000E+00
  0.1105000      0.0000000E+00
  0.1110000      0.0000000E+00
  0.1115000      0.0000000E+00
  0.1120000      0.0000000E+00
  0.1125000      0.0000000E+00
  0.1130000      0.0000000E+00
  0.1135000      0.0000000E+00
  0.1140000      0.0000000E+00
  0.1145000      0.0000000E+00
  0.1150000      0.0000000E+00
  0.1155000      0.0000000E+00
  0.1160000      0.0000000E+00
  0.1165000      0.0000000E+00
  0.1170000      0.0000000E+00
  0.1175000      0.0000000E+00
  0.1180000      0.0000000E+00
  0.1185000      0.0000000E+00
  0.1190000      0.0000000E+00
  0.1195000      0.0000000E+00
  0.1200000      0.0000000E+00
  0.1205000      0.0000000E+00
  0.1210000      0.0000000E+00
  0.1215000      0.0000000E+00
  0.1220000      0.0000000E+00
  0.1225000      0.0000000E+00
  0.1230000      0.0000000E+00
  0.1235000      0.0000000E+00
  0.1240000      0.0000000E+00
  0.1245000      0.0000000E+00
  0.1250000      0.0000000E+00
  0.1255000      0.0000000E+00
  0.1260000      0.0000000E+00
  0.1265000      0.0000000E+00
  0.1270000      0.0000000E+00
  0.1275000      0.0000000E+00
  0.1280000      0.0000000E+00
  0.1285000      0.0000000E+00
  0.1290000      0.0000000E+00
  0.1295000      0.0000000E+00
  0.1300000      0.0000000E+00
  0.1305000      0.0000000E+00
  0.1310000      0.0000000E+00
  0.1315000      0.0000000E+00
  0.1320000      0.0000000E+00
  0.1325000      0.0000000E+00
  0.1330000      0.0000000E+00
  0.1335000      0.0000000E+00
  0.1340000      0.0000000E+00
  0.1345000      0.0000000E+00
  0.1350000      0.0000000E+00
  0.1355000      0.0000000E+00
  0.1360000      0.0000000E+00
  0.1365000      0.0000000E+00
  0.1370000      0.0000000E+00
  0.1375000      0.0000000E+00
  0.1380000      0.0000000E+00
  0.1385000      0.0000000E+00
  0.1390000      0.0000000E+00
  0.1395000      0.0000000E+00
  0.1400000      0.0000000E+00
  0.1405000      0.0000000E+00
  0.1410000      0.0000000E+00
  0.1415000      0.0000000E+00
  0.1420000      0.0000000E+00
  0.1425000      0.0000000E+00
  0.1430000      0.0000000E+00
  0.1435000      0.0000000E+00
  0.1440000      0.0000000E+00
  0.1445000      0.0000000E+00
  0.1450000      0.0000000E+00
  0.1455000      0.0000000E+00
  0.1460000      0.0000000E+00
  0.1465000      0.0000000E+00
  0.1470000      0.0000000E+00
  0.1475000      0.0000000E+00
  0.1480000      0.0000000E+00
  0.1485000      0.0000000E+00
  0.1490000      0.0000000E+00
  0.1495000      0.0000000E+00
  0.1500000      0.0000000E+00
  0.1505000      0.0000000E+00
  0.1510000      0.0000000E+00
  0.1515000      0.0000000E+00
  0.1520000      0.0000000E+00
  0.1525000      0.0000000E+00
  0.1530000      0.0000000E+00
  0.1535000      0.0000000E+00
  0.1540000      0.0000000E+00
  0.1545000      0.0000000E+00
  0.1550000      0.0000000E+00
  0.1555000      0.0000000E+00
  0.1560000      0.0000000E+00
  0.1565000      0.0000000E+00
  0.1570000      0.0000000E+00
  0.1575000      0.0000000E+00
  0.1580000      0.0000000E+00
  0.1585000      0.0000000E+00
  0.1590000      0.0000000E+00
  0.1595000      0.0000000E+00
  0.1600000      0.0000000E+00
  0.1605000      0.0000000E+00
  0.1610000      0.0000000E+00
  0.1615000      0.0000000E+00
  0.1620000      0.0000000E+00
  0.1625000      0.0000000E+00
  0.1630000      0.0000000E+00
  0.1635000      0.0000000E+00
  0.1640000      0.0000000E+00
  0.1645000      0.0000000E+00
  0.1650000      0.0000000E+00
  0.1655000      0.0000000E+00
  0.1660000      0.0000000E+00
  0.1665000      0.0000000E+00
  0.1670000      0.0000000E+00
  0.1675000      0.0000000E+00
  0.1680000      0.0000000E+00
  0.1685000      0.0000000E+00
  0.1690000      0.0000000E+00
  0.1695000      0.0000000E+00
  0.1700000      0.0000000E+00
  0.1705000      0.0000000E+00
  0.1710000      0.0000000E+00
  0.1715000      0.0000000E+00
  0.1720000      0.0000000E+00
  0.1725000      0.0000000E+00
  0.1730000      0.0000000E+00
  0.1735000      0.0000000E+00
  0.1740000      0.0000000E+00
  0.1745000      0.0000000E+00
  0.1750000      0.0000000E+00
  0.1755000      0.0000000E+00
  0.1760000      0.0000000E+00
  0.1765000      0.0000000E+00
  0.1770000      0.0000000E+00
  0.1775000      0.0000000E+00
  0.1780000      0.0000000E+00
  0.1785000      0.0000000E+00
  0.1790000      0.0000000E+00
  0.1795000      0.0000000E+00
  0.1800000      0.0000000E+00
  0.1805000      0.0000000E+00
  0.1810000      0.0000000E+00
  0.1815000      0.0000000E+00
  0.1820000      0.0000000E+00
  0.1825000      0.0000000E+00
  0.1830000      0.0000000E+00
  0.1835000      0.0000000E+00
  0.1840000      0.0000000E+00
  0.1845000      0.0000000E+00
  0.1850000      0.0000000E+00
  0.1855000      0.0000000E+00
  0.1860000      0.0000000E+00
  0.1865000      0.0000000E+00
  0.1870000      0.0000000E+00
  0.1875000      0.0000000E+00
  0.1880000      0.0000000E+00
  0.1885000      0.0000000E+00
  0.1890000      0.0000000E+00
  0.1895000      0.0000000E+00
  0.1900000      0.0000000E+00
  0.1905000      0.0000000E+00
  0.1910000      0.0000000E+00
  0.1915000      0.0000000E+00
  0.1920000      0.0000000E+00
  0.1925000      0.0000000E+00
  0.1930000      0.0000000E+00
  0.1935000      0.0000000E+00
  0.1940000      0.0000000E+00
  0.1945000      0.0000000E+00
  0.1950000      0.0000000E+00
  0.1955000      0.0000000E+00
  0.1960000      0.0000000E+00
  0.1965000      0.0000000E+00
  0.1970000      0.0000000E+00
  0.1975000      0.0000000E+00
  0.1980000      0.0000000E+00
  0.1985000      0.0000000E+00
  0.1990000      0.0000000E+00
  0.1995000      0.0000000E+00
  0.2000000      0.0000000E+00
  0.2005000      0.0000000E+00
  0.2010000      0.0000000E+00
  0.2015000      0.0000000E+00
  0.2020000      0.0000000E+00
  0.2025000      0.0000000E+00
  0.2030000      0.0000000E+00
  0.2035000      0.0000000E+00
  0.2040000      0.0000000E+00
  0.2045000      0.0000000E+00
  0.2050000      0.0000000E+00
  0.2055000      0.0000000E+00
  0.2060000      0.0000000E+00
  0.2065000      0.0000000E+00
  0.2070000      0.0000000E+00
  0.2075000      0.0000000E+00
  0.2080000      0.0000000E+00
  0.2085000      0.0000000E+00
  0.2090000      0.0000000E+00
  0.2095000      0.0000000E+00
  0.2100000      0.0000000E+00
  0.2105000      0.0000000E+00
  0.2110000      0.0000000E+00
  0.2115000      0.0000000E+00
  0.2120000      0.0000000E+00
  0.2125000      0.0000000E+00
  0.2130000      0.0000000E+00
  0.2135000      0.0000000E+00
  0.2140000      0.0000000E+00
  0.2145000      0.0000000E+00
  0.2150000      0.0000000E+00
  0.2155000      0.0000000E+00
  0.2160000      0.0000000E+00
  0.2165000      0.0000000E+00
  0.2170000      0.0000000E+00
  0.2175000      0.0000000E+00
  0.2180000      0.0000000E+00
  0.2185000      0.0000000E+00
  0.2190000      0.0000000E+00
  0.2195000      0.0000000E+00
  0.2200000      0.0000000E+00
  0.2205000      0.0000000E+00
  0.2210000      0.0000000E+00
  0.2215000      0.0000000E+00
  0.2220000      0.0000000E+00
  0.2225000      0.0000000E+00
  0.2230000      0.0000000E+00
  0.2235000      0.0000000E+00
  0.2240000      0.0000000E+00
  0.2245000      0.0000000E+00
  0.2250000      0.0000000E+00
  0.2255000      0.0000000E+00
  0.2260000      0.0000000E+00
  0.2265000      0.0000000E+00
  0.2270000      0.0000000E+00
  0.2275000      0.0000000E+00
  0.2280000      0.0000000E+00
  0.2285000      0.0000000E+00
  0.2290000      0.0000000E+00
  0.2295000      0.0000000E+00
  0.2300000      0.0000000E+00
  0.2305000      0.0000000E+00
  0.2310000      0.0000000E+00
  0.2315000      0.0000000E+00
  0.2320000      0.0000000E+00
  0.2325000      0.0000000E+00
  0.2330000      0.0000000E+00
  0.2335000      0.0000000E+00
  0.2340000      0.0000000E+00
  0.2345000      0.0000000E+00
  0.2350000      0.0000000E+00
  0.2355000      0.0000000E+00
  0.2360000      0.0000000E+00
  0.2365000      0.0000000E+00
  0.2370000      0.0000000E+00
  0.2375000      0.0000000E+00
  0.2380000      0.0000000E+00
  0.2385000      0.0000000E+00
  0.2390000      0.0000000E+00
  0.2395000      0.0000000E+00
  0.2400000      0.0000000E+00
  0.2405000      0.0000000E+00
  0.2410000      0.0000000E+00
  0.2415000      0.0000000E+00
  0.2420000      0.0000000E+00
  0.2425000      0.0000000E+00
  0.2430000      0.0000000E+00
  0.2435000      0.0000000E+00
  0.2440000      0.0000000E+00
  0.2445000      0.0000000E+00
  0.2450000      0.0000000E+00
  0.2455000      0.0000000E+00
  0.2460000      0.0000000E+00
  0.2465000      0.0000000E+00
  0.2470000      0.0000000E+00
  0.2475000      0.0000000E+00
  0.2480000      0.0000000E+00
  0.2485000      0.0000000E+00
  0.2490000      0.0000000E+00
  0.2495000      0.0000000E+00
  0.2500000      0.0000000E+00
  0.2505000      0.0000000E+00
  0.2510000      0.0000000E+00
  0.2515000      0.0000000E+00
  0.2520000      0.0000000E+00
  0.2525000      0.0000000E+00
  0.2530000      0.0000000E+00
  0.2535000      0.0000000E+00
  0.2540000      0.0000000E+00
  0.2545000      0.0000000E+00
  0.2550000      0.0000000E+00
  0.2555000      0.0000000E+00
  0.2560000      0.0000000E+00
  0.2565000      0.0000000E+00
  0.2570000      0.0000000E+00
  0.2575000      0.0000000E+00
  0.2580000      0.0000000E+00
  0.2585000      0.0000000E+00
  0.2590000      0.0000000E+00
  0.2595000      0.0000000E+00
  0.2600000      0.0000000E+00
  0.2605000      0.0000000E+00
  0.2610000      0.0000000E+00
  0.2615000      0.0000000E+00
  0.2620000      0.0000000E+00
  0.2625000      0.0000000E+00
  0.2630000      0.0000000E+00
  0.2635000      0.0000000E+00
  0.2640000      0.0000000E+00
  0.2645000      0.0000000E+00
  0.2650000      0.0000000E+00
  0.2655000      0.0000000E+00
  0.2660000      0.0000000E+00
  0.2665000      0.0000000E+00
  0.2670000      0.0000000E+00
  0.2675000      0.0000000E+00
  0.2680000      0.0000000E+00
  0.2685000      0.0000000E+00
  0.2690000      0.0000000E+00
  0.2695000      0.0000000E+00
  0.2700000      0.0000000E+00
  0.2705000      0.0000000E+00
  0.2710000      0.0000000E+00
  0.2715000      0.0000000E+00
  0.2720000      0.0000000E+00
  0.2725000      0.0000000E+00
  0.2730000      0.0000000E+00
  0.2735000      2.5273575E-38
  0.2740000      3.4431243E-38
  0.2745000      3.8860456E-38
  0.2750000      2.5117005E-38
  0.2755000      8.7652479E-37
  0.2760000     -3.4962248E-38
  0.2765000      4.6018731E-36
  0.2770000      2.0166526E-36
  0.2775000      3.9541414E-37
  0.2780000     -1.5680238E-36
  0.2785000     -5.5547077E-36
  0.2790000     -5.9231714E-36
  0.2795000     -6.0544058E-36
  0.2800000     -6.0886661E-36
  0.2805000     -3.9003945E-36
  0.2810000      1.4547052E-36
  0.2815000      5.2070242E-36
  0.2820000      8.1259233E-36
  0.2825000      1.1361717E-35
  0.2830000      1.2695771E-35
  0.2835000      5.3629609E-36
  0.2840000     -1.8136389E-36
  0.2845000     -2.0546852E-35
  0.2850000     -2.1805678E-35
  0.2855000     -2.5912516E-35
  0.2860000     -1.0612936E-35
  0.2865000      1.0276749E-35
  0.2870000      2.1050111E-35
  0.2875000      1.7195938E-35
  0.2880000      1.6782904E-35
  0.2885000     -1.2594999E-35
  0.2890000     -2.9608229E-35
  0.2895000     -3.0017698E-35
  0.2900000     -2.6186091E-35
  0.2905000     -4.6827554E-36
  0.2910000      3.3624385E-35
  0.2915000     -2.3944316E-35
  0.2920000     -5.6597149E-35
  0.2925000     -1.3680839E-34
  0.2930000      1.0235030E-34
  0.2935000     -1.3490476E-34
  0.2940000     -1.9882840E-34
  0.2945000     -1.9489737E-35
  0.2950000      4.1655249E-34
  0.2955000      3.2928641E-34
  0.2960000      3.4968193E-34
  0.2965000      3.6924596E-34
  0.2970000      3.8435146E-34
  0.2975000      2.9292256E-34
  0.2980000     -2.0326917E-34
  0.2985000     -7.2054048E-34
  0.2990000     -1.8105280E-34
  0.2995000     -2.2921779E-34
  0.3000000     -7.3791396E-34
  0.3005000     -6.9014320E-34
  0.3010000     -8.9433410E-34
  0.3015000     -8.4915499E-34
  0.3020000     -1.1971533E-33
  0.3025000     -9.7501076E-34
  0.3030000     -1.0077677E-33
  0.3035000     -9.9795577E-34
  0.3040000     -1.1162386E-33
  0.3045000     -1.0260309E-33
  0.3050000     -8.2910739E-34
  0.3055000     -1.1597051E-33
  0.3060000     -7.5687566E-36
  0.3065000      1.2709396E-34
  0.3070000      7.8845062E-34
  0.3075000      4.6518426E-34
  0.3080000      4.0759615E-34
  0.3085000      3.6788965E-34
  0.3090000      4.6190890E-34
  0.3095000      3.6635441E-34
  0.3100000      3.5517146E-34
  0.3105000      4.2902229E-34
  0.3110000      5.5052258E-34
  0.3115000      5.3556345E-34
  0.3120000      4.9258893E-34
  0.3125000      5.9260797E-35
  0.3130000     -1.7464649E-34
  0.3135000     -5.5599110E-34
  0.3140000     -1.4066759E-33
  0.3145000     -1.6031855E-33
  0.3150000     -1.8703065E-33
  0.3155000     -2.9385381E-33
  0.3160000     -2.3048162E-33
  0.3165000     -2.3142099E-33
  0.3170000     -2.4991464E-33
  0.3175000     -3.1714794E-33
  0.3180000     -4.6538865E-33
  0.3185000     -2.3365650E-33
  0.3190000     -1.9824192E-33
  0.3195000     -9.5935354E-34
  0.3200000     -3.2908008E-34
  0.3205000      2.4281457E-34
  0.3210000      2.4688351E-33
  0.3215000      4.0451428E-33
  0.3220000      5.2481698E-33
  0.3225000      6.6404587E-33
  0.3230000      7.6916482E-33
  0.3235000      8.7489473E-33
  0.3240000      9.5775019E-33
  0.3245000      9.8918636E-33
  0.3250000      9.6505698E-33
  0.3255000      9.2200259E-33
  0.3260000      7.8868860E-33
  0.3265000      6.8745363E-33
  0.3270000      5.6542252E-33
  0.3275000      4.1121206E-33
  0.3280000     -1.6953053E-34
  0.3285000     -4.9672446E-33
  0.3290000     -1.0009579E-32
  0.3295000     -1.5875695E-32
  0.3300000     -2.1080211E-32
  0.3305000     -2.5524611E-32
  0.3310000     -2.9020284E-32
  0.3315000     -3.0813125E-32
  0.3320000     -3.1215543E-32
  0.3325000     -2.9934052E-32
  0.3330000     -2.7054023E-32
  0.3335000     -2.3892306E-32
  0.3340000     -1.8166863E-32
  0.3345000     -1.2828683E-32
  0.3350000     -7.9923448E-33
  0.3355000     -2.6576436E-33
  0.3360000      3.3128336E-33
  0.3365000      9.6925284E-33
  0.3370000      1.7378029E-32
  0.3375000      2.5893011E-32
  0.3380000      3.4893415E-32
  0.3385000      4.4544406E-32
  0.3390000      5.5027330E-32
  0.3395000      6.5938110E-32
  0.3400000      7.6975226E-32
  0.3405000      8.7485379E-32
  0.3410000      9.7222099E-32
  0.3415000      1.0510249E-31
  0.3420000      1.1156175E-31
  0.3425000      1.1422773E-31
  0.3430000      1.1356323E-31
  0.3435000      1.0865070E-31
  0.3440000      9.7280445E-32
  0.3445000      8.0308140E-32
  0.3450000      5.9940091E-32
  0.3455000      3.4032519E-32
  0.3460000      2.3185256E-33
  0.3465000     -3.5073998E-32
  0.3470000     -7.7610569E-32
  0.3475000     -1.2480323E-31
  0.3480000     -1.7557322E-31
  0.3485000     -2.2867501E-31
  0.3490000     -2.8249511E-31
  0.3495000     -3.3515505E-31
  0.3500000     -3.8450430E-31
  0.3505000     -4.2793985E-31
  0.3510000     -4.6363411E-31
  0.3515000     -4.8864571E-31
  0.3520000     -5.0043874E-31
  0.3525000     -4.9653215E-31
  0.3530000     -4.7459005E-31
  0.3535000     -4.3256833E-31
  0.3540000     -3.6832437E-31
  0.3545000     -2.8196889E-31
  0.3550000     -1.7246698E-31
  0.3555000     -4.0341173E-32
  0.3560000      1.1303033E-31
  0.3565000      2.8524736E-31
  0.3570000      4.7287034E-31
  0.3575000      6.7152828E-31
  0.3580000      8.7576774E-31
  0.3585000      1.0791823E-30
  0.3590000      1.2746623E-30
  0.3595000      1.4544202E-30
  0.3600000      1.6101574E-30
  0.3605000      1.7333379E-30
  0.3610000      1.8154267E-30
  0.3615000      1.8480661E-30
  0.3620000      1.8235342E-30
  0.3625000      1.7350460E-30
  0.3630000      1.5769777E-30
  0.3635000      1.3453333E-30
  0.3640000      1.0380579E-30
  0.3645000      6.5531492E-31
  0.3650000      1.9977364E-31
  0.3655000     -3.2320711E-31
  0.3660000     -9.0534901E-31
  0.3665000     -1.5355549E-30
  0.3670000     -2.1997135E-30
  0.3675000     -2.8809249E-30
  0.3680000     -3.5595940E-30
  0.3685000     -4.2137327E-30
  0.3690000     -4.8193779E-30
  0.3695000     -5.3509928E-30
  0.3700000     -5.7821029E-30
  0.3705000     -6.0859702E-30
  0.3710000     -6.2365290E-30
  0.3715000     -6.2091564E-30
  0.3720000     -5.9817736E-30
  0.3725000     -5.5358377E-30
  0.3730000     -4.8573559E-30
  0.3735000     -3.9380159E-30
  0.3740000     -2.7759773E-30
  0.3745000     -1.3770918E-30
  0.3750000      2.4477507E-31
  0.3755000      2.0668578E-30
  0.3760000      4.0572498E-30
  0.3765000      6.1748534E-30
  0.3770000      8.3693791E-30
  0.3775000      1.0582022E-29
  0.3780000      1.2745935E-29
  0.3785000      1.4787742E-29
  0.3790000      1.6628888E-29
  0.3795000      1.8187361E-29
  0.3800000      1.9380046E-29
  0.3805000      2.0125073E-29
  0.3810000      2.0344689E-29
  0.3815000      1.9968097E-29
  0.3820000      1.8934270E-29
  0.3825000      1.7195279E-29
  0.3830000      1.4719222E-29
  0.3835000      1.1492837E-29
  0.3840000      7.5242788E-30
  0.3845000      2.8451039E-30
  0.3850000     -2.4874777E-30
  0.3855000     -8.3903597E-30
  0.3860000     -1.4753353E-29
  0.3865000     -2.1439339E-29
  0.3870000     -2.8286091E-29
  0.3875000     -3.5107512E-29
  0.3880000     -4.1696657E-29
  0.3885000     -4.7830329E-29
  0.3890000     -5.3272372E-29
  0.3895000     -5.7780962E-29
  0.3900000     -6.1113952E-29
  0.3905000     -6.3036554E-29
  0.3910000     -6.3328976E-29
  0.3915000     -6.1794281E-29
  0.3920000     -5.8266934E-29
  0.3925000     -5.2621594E-29
  0.3930000     -4.4780309E-29
  0.3935000     -3.4720120E-29
  0.3940000     -2.2480378E-29
  0.3945000     -8.1692832E-30
  0.3950000      8.0346878E-30
  0.3955000      2.5876692E-29
  0.3960000      4.5026458E-29
  0.3965000      6.5080345E-29
  0.3970000      8.5561966E-29
  0.3975000      1.0593111E-28
  0.3980000      1.2559110E-28
  0.3985000      1.4389950E-28
  0.3990000      1.6018176E-28
  0.3995000      1.7374683E-28
  0.4000000      1.8390599E-28
  0.4005000      1.8999126E-28
  0.4010000      1.9137707E-28
  0.4015000      1.8750300E-28
  0.4020000      1.7789656E-28
  0.4025000      1.6219410E-28
  0.4030000      1.4016587E-28
  0.4035000      1.1173289E-28
  0.4040000      7.6989152E-29
  0.4045000      3.6213357E-29
  0.4050000     -1.0113096E-29
  0.4055000     -6.1306635E-29
  0.4060000     -1.1647480E-28
  0.4065000     -1.7451455E-28
  0.4070000     -2.3412907E-28
  0.4075000     -2.9383952E-28
  0.4080000     -3.5200453E-28
  0.4085000     -4.0684981E-28
  0.4090000     -4.5650871E-28
  0.4095000     -4.9905241E-28
  0.4100000     -5.3254654E-28
  0.4105000     -5.5509808E-28
  0.4110000     -5.6491059E-28
  0.4115000     -5.6034937E-28
  0.4120000     -5.3999416E-28
  0.4125000     -5.0270686E-28
  0.4130000     -4.4768771E-28
  0.4135000     -3.7453586E-28
  0.4140000     -2.8329616E-28
  0.4145000     -1.7450631E-28
  0.4150000     -4.9237696E-29
  0.4155000      9.0887144E-29
  0.4160000      2.4367186E-28
  0.4165000      4.0634729E-28
  0.4170000      5.7560706E-28
  0.4175000      7.4760046E-28
  0.4180000      9.1801078E-28
  0.4185000      1.0821140E-27
  0.4190000      1.2348623E-27
  0.4195000      1.3709805E-27
  0.4200000      1.4850884E-27
  0.4205000      1.5718282E-27
  0.4210000      1.6260128E-27
  0.4215000      1.6427770E-27
  0.4220000      1.6177345E-27
  0.4225000      1.5471642E-27
  0.4230000      1.4281441E-27
  0.4235000      1.2587376E-27
  0.4240000      1.0381227E-27
  0.4245000      7.6674314E-28
  0.4250000      4.4644756E-28
  0.4255000      8.0508325E-29
  0.4260000     -3.2621909E-28
  0.4265000     -7.6733103E-28
  0.4270000     -1.2348558E-27
  0.4275000     -1.7193091E-27
  0.4280000     -2.2097691E-27
  0.4285000     -2.6940411E-27
  0.4290000     -3.1588408E-27
  0.4295000     -3.5900058E-27
  0.4300000     -3.9727937E-27
  0.4305000     -4.2921922E-27
  0.4310000     -4.5333090E-27
  0.4315000     -4.6817308E-27
  0.4320000     -4.7239922E-27
  0.4325000     -4.6479650E-27
  0.4330000     -4.4433634E-27
  0.4335000     -4.1021618E-27
  0.4340000     -3.6190828E-27
  0.4345000     -2.9919281E-27
  0.4350000     -2.2220218E-27
  0.4355000     -1.3145411E-27
  0.4360000     -2.7876100E-28
  0.4365000      8.7179472E-28
  0.4370000      2.1192481E-27
  0.4375000      3.4413926E-27
  0.4380000      4.8117457E-27
  0.4385000      6.1999683E-27
  0.4390000      7.5720401E-27
  0.4395000      8.8909932E-27
  0.4400000      1.0117303E-26
  0.4405000      1.1209931E-26
  0.4410000      1.2127002E-26
  0.4415000      1.2826905E-26
  0.4420000      1.3269405E-26
  0.4425000      1.3416801E-26
  0.4430000      1.3235092E-26
  0.4435000      1.2695368E-26
  0.4440000      1.1774962E-26
  0.4445000      1.0458638E-26
  0.4450000      8.7400011E-27
  0.4455000      6.6221861E-27
  0.4460000      4.1189775E-27
  0.4465000      1.2555127E-27
  0.4470000     -1.9312026E-27
  0.4475000     -5.3921875E-27
  0.4480000     -9.0664023E-27
  0.4485000     -1.2881130E-26
  0.4490000     -1.6752766E-26
  0.4495000     -2.0587660E-26
  0.4500000     -2.4283761E-26
  0.4505000     -2.7732384E-26
  0.4510000     -3.0820130E-26
  0.4515000     -3.3431676E-26
  0.4520000     -3.5452250E-26
  0.4525000     -3.6770887E-26
  0.4530000     -3.7283659E-26
  0.4535000     -3.6897012E-26
  0.4540000     -3.5530995E-26
  0.4545000     -3.3123293E-26
  0.4550000     -2.9631942E-26
  0.4555000     -2.5038909E-26
  0.4560000     -1.9352695E-26
  0.4565000     -1.2610697E-26
  0.4570000     -4.8817733E-27
  0.4575000      3.7338555E-27
  0.4580000      1.3102405E-26
  0.4585000      2.3058050E-26
  0.4590000      3.3403147E-26
  0.4595000      4.3910799E-26
  0.4600000      5.4327784E-26
  0.4605000      6.4378211E-26
  0.4610000      7.3768836E-26
  0.4615000      8.2194980E-26
  0.4620000      8.9347095E-26
  0.4625000      9.4918382E-26
  0.4630000      9.8613215E-26
  0.4635000      1.0015589E-25
  0.4640000      9.9299734E-26
  0.4645000      9.5835802E-26
  0.4650000      8.9602747E-26
  0.4655000      8.0495915E-26
  0.4660000      6.8473644E-26
  0.4665000      5.3565930E-26
  0.4670000      3.5880651E-26
  0.4675000      1.5607501E-26
  0.4680000     -6.9781180E-27
  0.4685000     -3.1516697E-26
  0.4690000     -5.7562841E-26
  0.4695000     -8.4590233E-26
  0.4700000     -1.1199835E-25
  0.4705000     -1.3911995E-25
  0.4710000     -1.6523244E-25
  0.4715000     -1.8957238E-25
  0.4720000     -2.1135023E-25
  0.4725000     -2.2976977E-25
  0.4730000     -2.4404738E-25
  0.4735000     -2.5343350E-25
  0.4740000     -2.5723734E-25
  0.4745000     -2.5484728E-25
  0.4750000     -2.4575756E-25
  0.4755000     -2.2958833E-25
  0.4760000     -2.0610847E-25
  0.4765000     -1.7525631E-25
  0.4770000     -1.3715524E-25
  0.4775000     -9.2126622E-26
  0.4780000     -4.0703192E-26
  0.4785000      1.6369725E-26
  0.4790000      7.8132543E-26
  0.4795000      1.4341751E-25
  0.4800000      2.1086062E-25
  0.4805000      2.7891876E-25
  0.4810000      3.4589492E-25
  0.4815000      4.0996847E-25
  0.4820000      4.6923291E-25
  0.4825000      5.2173475E-25
  0.4830000      5.6552748E-25