  0.0000000E+00  0.0000000E+00
  5.0000002E-04  0.0000000E+00
  1.0000000E-03  0.0000000E+00
  1.5000000E-03  0.0000000E+00
  2.0000001E-03  0.0000000E+00
  2.4999999E-03  0.0000000E+00
  3.0000000E-03  0.0000000E+00
  3.5000001E-03  0.0000000E+00
  4.0000002E-03  0.0000000E+00
  4.4999998E-03  0.0000000E+00
  4.9999999E-03  0.0000000E+00
  5.5000000E-03  0.0000000E+00
  6.0000001E-03  0.0000000E+00
  6.5000001E-03  0.0000000E+00
  7.0000002E-03  0.0000000E+00
  7.4999998E-03  0.0000000E+00
  8.0000004E-03  0.0000000E+00
  8.5000005E-03  0.0000000E+00
  8.9999996E-03  0.0000000E+00
  9.4999997E-03  0.0000000E+00
  9.9999998E-03  0.0000000E+00
  1.0500000E-02  0.0000000E+00
  1.1000000E-02  0.0000000E+00
  1.1500000E-02  0.0000000E+00
  1.2000000E-02  0.0000000E+00
  1.2500000E-02  0.0000000E+00
  1.3000000E-02  0.0000000E+00
  1.3500000E-02  0.0000000E+00
  1.4000000E-02  0.0000000E+00
  1.4500000E-02  0.0000000E+00
  1.5000000E-02  0.0000000E+00
  1.5500000E-02  0.0000000E+00
  1.6000001E-02  0.0000000E+00
  1.6500000E-02  0.0000000E+00
  1.7000001E-02  0.0000000E+00
  1.7500000E-02  0.0000000E+00
  1.7999999E-02  0.0000000E+00
  1.8500000E-02  0.0000000E+00
  1.8999999E-02  0.0000000E+00
  1.9500000E-02  0.0000000E+00
  2.0000000E-02  0.0000000E+00
  2.0500001E-02  0.0000000E+00
  2.1000000E-02  0.0000000E+00
  2.1500001E-02  0.0000000E+00
  2.2000000E-02  0.0000000E+00
  2.2500001E-02  0.0000000E+00
  2.3000000E-02  0.0000000E+00
  2.3499999E-02  0.0000000E+00
  2.4000000E-02  0.0000000E+00
  2.4499999E-02  0.0000000E+00
  2.5000000E-02  0.0000000E+00
  2.5500000E-02  0.0000000E+00
  2.6000001E-02  0.0000000E+00
  2.6500000E-02  0.0000000E+00
  2.7000001E-02  0.0000000E+00
  2.7500000E-02  0.0000000E+00
  2.8000001E-02  0.0000000E+00
  2.8500000E-02  0.0000000E+00
  2.8999999E-02  0.0000000E+00
  2.9500000E-02  0.0000000E+00
  2.9999999E-02  0.0000000E+00
  3.0500000E-02  0.0000000E+00
  3.0999999E-02  0.0000000E+00
  3.1500001E-02  0.0000000E+00
  3.2000002E-02  0.0000000E+00
  3.2499999E-02  0.0000000E+00
  3.3000000E-02  0.0000000E+00
  3.3500001E-02  0.0000000E+00
  3.4000002E-02  0.0000000E+00
  3.4499999E-02  0.0000000E+00
  3.5000000E-02  0.0000000E+00
  3.5500001E-02  0.0000000E+00
  3.5999998E-02  0.0000000E+00
  3.6499999E-02  0.0000000E+00
  3.7000000E-02  0.0000000E+00
  3.7500001E-02  0.0000000E+00
  3.7999999E-02  0.0000000E+00
  3.8500000E-02  0.0000000E+00
  3.9000001E-02  0.0000000E+00
  3.9500002E-02  0.0000000E+00
  3.9999999E-02  0.0000000E+00
  4.0500000E-02  0.0000000E+00
  4.1000001E-02  0.0000000E+00
  4.1499998E-02  0.0000000E+00
  4.1999999E-02  0.0000000E+00
  4.2500000E-02  0.0000000E+00
  4.3000001E-02  0.0000000E+00
  4.3499999E-02  0.0000000E+00
  4.4000000E-02  0.0000000E+00
  4.4500001E-02  0.0000000E+00
  4.5000002E-02  0.0000000E+00
  4.5499999E-02  0.0000000E+00
  4.6000000E-02  0.0000000E+00
  4.6500001E-02  0.0000000E+00
  4.6999998E-02  0.0000000E+00
  4.7499999E-02  0.0000000E+00
  4.8000000E-02  0.0000000E+00
  4.8500001E-02  0.0000000E+00
  4.8999999E-02  0.0000000E+00
  4.9500000E-02  0.0000000E+00
  5.0000001E-02  0.0000000E+00
  5.0500002E-02  0.0000000E+00
  5.0999999E-02  0.0000000E+00
  5.1500000E-02  0.0000000E+00
  5.2000001E-02  0.0000000E+00
  5.2499998E-02  0.0000000E+00
  5.2999999E-02  0.0000000E+00
  5.3500000E-02  0.0000000E+00
  5.4000001E-02  0.0000000E+00
  5.4499999E-02  0.0000000E+00
  5.5000000E-02  0.0000000E+00
  5.5500001E-02  0.0000000E+00
  5.6000002E-02  0.0000000E+00
  5.6499999E-02  0.0000000E+00
  5.7000000E-02  0.0000000E+00
  5.7500001E-02  0.0000000E+00
  5.7999998E-02  0.0000000E+00
  5.8499999E-02  0.0000000E+00
  5.9000000E-02  0.0000000E+00
  5.9500001E-02  0.0000000E+00
  5.9999999E-02  0.0000000E+00
  6.0500000E-02  0.0000000E+00
  6.1000001E-02  0.0000000E+00
  6.1500002E-02  0.0000000E+00
  6.1999999E-02  0.0000000E+00
  6.2500000E-02  0.0000000E+00
  6.3000001E-02  0.0000000E+00
  6.3500002E-02  0.0000000E+00
  6.4000003E-02  0.0000000E+00
  6.4499997E-02  0.0000000E+00
  6.4999998E-02  0.0000000E+00
  6.5499999E-02  0.0000000E+00
  6.6000000E-02  0.0000000E+00
  6.6500001E-02  0.0000000E+00
  6.7000002E-02  0.0000000E+00
  6.7500003E-02  0.0000000E+00
  6.8000004E-02  0.0000000E+00
  6.8499997E-02  0.0000000E+00
  6.8999998E-02  0.0000000E+00
  6.9499999E-02  0.0000000E+00
  7.0000000E-02  0.0000000E+00
  7.0500001E-02  0.0000000E+00
  7.1000002E-02  0.0000000E+00
  7.1500003E-02  0.0000000E+00
  7.1999997E-02  0.0000000E+00
  7.2499998E-02  0.0000000E+00
  7.2999999E-02  0.0000000E+00
  7.3500000E-02  0.0000000E+00
  7.4000001E-02  0.0000000E+00
  7.4500002E-02  0.0000000E+00
  7.5000003E-02  0.0000000E+00
  7.5499997E-02  0.0000000E+00
  7.5999998E-02  0.0000000E+00
  7.6499999E-02  0.0000000E+00
  7.7000000E-02  0.0000000E+00
  7.7500001E-02  0.0000000E+00
  7.8000002E-02  0.0000000E+00
  7.8500003E-02  0.0000000E+00
  7.9000004E-02  0.0000000E+00
  7.9499997E-02  0.0000000E+00
  7.9999998E-02  0.0000000E+00
  8.0499999E-02  0.0000000E+00
  8.1000000E-02  0.0000000E+00
  8.1500001E-02  0.0000000E+00
  8.2000002E-02  0.0000000E+00
  8.2500003E-02  0.0000000E+00
  8.2999997E-02  0.0000000E+00
  8.3499998E-02  0.0000000E+00
  8.3999999E-02  0.0000000E+00
  8.4500000E-02  0.0000000E+00
  8.5000001E-02  0.0000000E+00
  8.5500002E-02  0.0000000E+00
  8.6000003E-02  0.0000000E+00
  8.6499996E-02  0.0000000E+00
  8.6999997E-02  0.0000000E+00
  8.7499999E-02  0.0000000E+00
  8.8000000E-02  0.0000000E+00
  8.8500001E-02  0.0000000E+00
  8.9000002E-02  0.0000000E+00
  8.9500003E-02  0.0000000E+00
  9.0000004E-02  0.0000000E+00
  9.0499997E-02  0.0000000E+00
  9.0999998E-02  0.0000000E+00
  9.1499999E-02  0.0000000E+00
  9.2000000E-02  0.0000000E+00
  9.2500001E-02  0.0000000E+00
  9.3000002E-02  0.0000000E+00
  9.3500003E-02  0.0000000E+00
  9.3999997E-02  0.0000000E+00
  9.4499998E-02  0.0000000E+00
  9.4999999E-02  0.0000000E+00
  9.5500000E-02  0.0000000E+00
  9.6000001E-02  0.0000000E+00
  9.6500002E-02  0.0000000E+00
  9.7000003E-02  0.0000000E+00
  9.7499996E-02  0.0000000E+00
  9.7999997E-02  0.0000000E+00
  9.8499998E-02  0.0000000E+00
  9.8999999E-02  0.0000000E+00
  9.9500000E-02  0.0000000E+00
  0.1000000      0.0000000E+00
  0.1005000      0.0000000E+00
  0.1010000      0.0000000E+00
  0.1015000      0.0000000E+00
  0.1020000      0.0000000E+00
  0.1025000      0.0000000E+00
  0.1030000      0.0000000E+00
  0.1035000      0.0000000E+00
  0.1040000      0.0000000E+00
  0.1045000      0.0000000E+00
  0.1050000      0.0000000E+00
  0.1055000      0.0000000E+00
  0.1060000      0.0000000E+00
  0.1065000      0.0000000E+00
  0.1070000      0.0000000E+00
  0.1075000      0.0000000E+00
  0.1080000      0.0000000E+00
  0.1085000      0.0000000E+00
  0.1090000      0.0000000E+00
  0.1095000      0.0000000E+00
  0.1100000      0.0000000E+00
  0.1105000      0.0000000E+00
  0.1110000      0.0000000E+00
  0.1115000      0.0000000E+00
  0.1120000      0.0000000E+00
  0.1125000      0.0000000E+00
  0.1130000      0.0000000E+00
  0.1135000      0.0000000E+00
  0.1140000      0.0000000E+00
  0.1145000      0.0000000E+00
  0.1150000      0.0000000E+00
  0.1155000      0.0000000E+00
  0.1160000      0.0000000E+00
  0.1165000      0.0000000E+00
  0.1170000      0.0000000E+00
  0.1175000      0.0000000E+00
  0.1180000      0.0000000E+00
  0.1185000      0.0000000E+00
  0.1190000      0.0000000E+00
  0.1195000      0.0000000E+00
  0.1200000      0.0000000E+00
  0.1205000      0.0000000E+00
  0.1210000      0.0000000E+00
  0.1215000      0.0000000E+00
  0.1220000      0.0000000E+00
  0.1225000      0.0000000E+00
  0.1230000      0.0000000E+00
  0.1235000      0.0000000E+00
  0.1240000      0.0000000E+00
  0.1245000      0.0000000E+00
  0.1250000      0.0000000E+00
  0.1255000      0.0000000E+00
  0.1260000      0.0000000E+00
  0.1265000      0.0000000E+00
  0.1270000      0.0000000E+00
  0.1275000      0.0000000E+00
  0.1280000      0.0000000E+00
  0.1285000      0.0000000E+00
  0.1290000      0.0000000E+00
  0.1295000      0.0000000E+00
  0.1300000      0.0000000E+00
  0.1305000      0.0000000E+00
  0.1310000      0.0000000E+00
  0.1315000      0.0000000E+00
  0.1320000      0.0000000E+00
  0.1325000      0.0000000E+00
  0.1330000      0.0000000E+00
  0.1335000      0.0000000E+00
  0.1340000      0.0000000E+00
  0.1345000      0.0000000E+00
  0.1350000      0.0000000E+00
  0.1355000      0.0000000E+00
  0.1360000      0.0000000E+00
  0.1365000      0.0000000E+00
  0.1370000      0.0000000E+00
  0.1375000      0.0000000E+00
  0.1380000      0.0000000E+00
  0.1385000      0.0000000E+00
  0.1390000      0.0000000E+00
  0.1395000      0.0000000E+00
  0.1400000      0.0000000E+00
  0.1405000      0.0000000E+00
  0.1410000      0.0000000E+00
  0.1415000      0.0000000E+00
  0.1420000      0.0000000E+00
  0.1425000      0.0000000E+00
  0.1430000      0.0000000E+00
  0.1435000      0.0000000E+00
  0.1440000      0.0000000E+00
  0.1445000      0.0000000E+00
  0.1450000      0.0000000E+00
  0.1455000      0.0000000E+00
  0.1460000      0.0000000E+00
  0.1465000      0.0000000E+00
  0.1470000      0.0000000E+00
  0.1475000      0.0000000E+00
  0.1480000      0.0000000E+00
  0.1485000      0.0000000E+00
  0.1490000      0.0000000E+00
  0.1495000      0.0000000E+00
  0.1500000      0.0000000E+00
  0.1505000      0.0000000E+00
  0.1510000      0.0000000E+00
  0.1515000      0.0000000E+00
  0.1520000      0.0000000E+00
  0.1525000      0.0000000E+00
  0.1530000      0.0000000E+00
  0.1535000      0.0000000E+00
  0.1540000      0.0000000E+00
  0.1545000      0.0000000E+00
  0.1550000      0.0000000E+00
  0.1555000      0.0000000E+00
  0.1560000      0.0000000E+00
  0.1565000      0.0000000E+00
  0.1570000      0.0000000E+00
  0.1575000      0.0000000E+00
  0.1580000      0.0000000E+00
  0.1585000      0.0000000E+00
  0.1590000      0.0000000E+00
  0.1595000      0.0000000E+00
  0.1600000      0.0000000E+00
  0.1605000      0.0000000E+00
  0.1610000      0.0000000E+00
  0.1615000      0.0000000E+00
  0.1620000      0.0000000E+00
  0.1625000      0.0000000E+00
  0.1630000      0.0000000E+00
  0.1635000      0.0000000E+00
  0.1640000      0.0000000E+00
  0.1645000      0.0000000E+00
  0.1650000      0.0000000E+00
  0.1655000      0.0000000E+00
  0.1660000      0.0000000E+00
  0.1665000      0.0000000E+00
  0.1670000      0.0000000E+00
  0.1675000      0.0000000E+00
  0.1680000      0.0000000E+00
  0.1685000      0.0000000E+00
  0.1690000      0.0000000E+00
  0.1695000      0.0000000E+00
  0.1700000      0.0000000E+00
  0.1705000      0.0000000E+00
  0.1710000      0.0000000E+00
  0.1715000      0.0000000E+00
  0.1720000      0.0000000E+00
  0.1725000      0.0000000E+00
  0.1730000      0.0000000E+00
  0.1735000      0.0000000E+00
  0.1740000      0.0000000E+00
  0.1745000      0.0000000E+00
  0.1750000      0.0000000E+00
  0.1755000      0.0000000E+00
  0.1760000      0.0000000E+00
  0.1765000      0.0000000E+00
  0.1770000      0.0000000E+00
  0.1775000      0.0000000E+00
  0.1780000      0.0000000E+00
  0.1785000      0.0000000E+00
  0.1790000      0.0000000E+00
  0.1795000      0.0000000E+00
  0.1800000      0.0000000E+00
  0.1805000      0.0000000E+00
  0.1810000      0.0000000E+00
  0.1815000      0.0000000E+00
  0.1820000      0.0000000E+00
  0.1825000      0.0000000E+00
  0.1830000      0.0000000E+00
  0.1835000      0.0000000E+00
  0.1840000      0.0000000E+00
  0.1845000      0.0000000E+00
  0.1850000      0.0000000E+00
  0.1855000      0.0000000E+00
  0.1860000      0.0000000E+00
  0.1865000      0.0000000E+00
  0.1870000      0.0000000E+00
  0.1875000      0.0000000E+00
  0.1880000      0.0000000E+00
  0.1885000      0.0000000E+00
  0.1890000      0.0000000E+00
  0.1895000      0.0000000E+00
  0.1900000      0.0000000E+00
  0.1905000      0.0000000E+00
  0.1910000      0.0000000E+00
  0.1915000      0.0000000E+00
  0.1920000      0.0000000E+00
  0.1925000      0.0000000E+00
  0.1930000      0.0000000E+00
  0.1935000      0.0000000E+00
  0.1940000      0.0000000E+00
  0.1945000      0.0000000E+00
  0.1950000      0.0000000E+00
  0.1955000      0.0000000E+00
  0.1960000      0.0000000E+00
  0.1965000      0.0000000E+00
  0.1970000      0.0000000E+00
  0.1975000      0.0000000E+00
  0.1980000      0.0000000E+00
  0.1985000      0.0000000E+00
  0.1990000      0.0000000E+00
  0.1995000      0.0000000E+00
  0.2000000      0.0000000E+00
  0.2005000      0.0000000E+00
  0.2010000      0.0000000E+00
  0.2015000      0.0000000E+00
  0.2020000      0.0000000E+00
  0.2025000      0.0000000E+00
  0.2030000      0.0000000E+00
  0.2035000      0.0000000E+00
  0.2040000      0.0000000E+00
  0.2045000      0.0000000E+00
  0.2050000      0.0000000E+00
  0.2055000      0.0000000E+00
  0.2060000      0.0000000E+00
  0.2065000      0.0000000E+00
  0.2070000      0.0000000E+00
  0.2075000      0.0000000E+00
  0.2080000      0.0000000E+00
  0.2085000      0.0000000E+00
  0.2090000      0.0000000E+00
  0.2095000      0.0000000E+00
  0.2100000      0.0000000E+00
  0.2105000      0.0000000E+00
  0.2110000      0.0000000E+00
  0.2115000      0.0000000E+00
  0.2120000      0.0000000E+00
  0.2125000      0.0000000E+00
  0.2130000      0.0000000E+00
  0.2135000      0.0000000E+00
  0.2140000      0.0000000E+00
  0.2145000      0.0000000E+00
  0.2150000      0.0000000E+00
  0.2155000      0.0000000E+00
  0.2160000      0.0000000E+00
  0.2165000      0.0000000E+00
  0.2170000      0.0000000E+00
  0.2175000      0.0000000E+00
  0.2180000      0.0000000E+00
  0.2185000      0.0000000E+00
  0.2190000      0.0000000E+00
  0.2195000      0.0000000E+00
  0.2200000      0.0000000E+00
  0.2205000      0.0000000E+00
  0.2210000      0.0000000E+00
  0.2215000      0.0000000E+00
  0.2220000      0.0000000E+00
  0.2225000      0.0000000E+00
  0.2230000      0.0000000E+00
  0.2235000      0.0000000E+00
  0.2240000      0.0000000E+00
  0.2245000      0.0000000E+00
  0.2250000      0.0000000E+00
  0.2255000      0.0000000E+00
  0.2260000      0.0000000E+00
  0.2265000      0.0000000E+00
  0.2270000      0.0000000E+00
  0.2275000      0.0000000E+00
  0.2280000      0.0000000E+00
  0.2285000      0.0000000E+00
  0.2290000      0.0000000E+00
  0.2295000      0.0000000E+00
  0.2300000      0.0000000E+00
  0.2305000      0.0000000E+00
  0.2310000      0.0000000E+00
  0.2315000      0.0000000E+00
  0.2320000      0.0000000E+00
  0.2325000      0.0000000E+00
  0.2330000      0.0000000E+00
  0.2335000      0.0000000E+00
  0.2340000      0.0000000E+00
  0.2345000      0.0000000E+00
  0.2350000      0.0000000E+00
  0.2355000      0.0000000E+00
  0.2360000      0.0000000E+00
  0.2365000      0.0000000E+00
  0.2370000      0.0000000E+00
  0.2375000      0.0000000E+00
  0.2380000      0.0000000E+00
  0.2385000      0.0000000E+00
  0.2390000      0.0000000E+00
  0.2395000      0.0000000E+00
  0.2400000      0.0000000E+00
  0.2405000      0.0000000E+00
  0.2410000      0.0000000E+00
  0.2415000      0.0000000E+00
  0.2420000      0.0000000E+00
  0.2425000      0.0000000E+00
  0.2430000      0.0000000E+00
  0.2435000      0.0000000E+00
  0.2440000      0.0000000E+00
  0.2445000      0.0000000E+00
  0.2450000      0.0000000E+00
  0.2455000      0.0000000E+00
  0.2460000      0.0000000E+00
  0.2465000      0.0000000E+00
  0.2470000      0.0000000E+00
  0.2475000      0.0000000E+00
  0.2480000      0.0000000E+00
  0.2485000      0.0000000E+00
  0.2490000      0.0000000E+00
  0.2495000      0.0000000E+00
  0.2500000      0.0000000E+00
  0.2505000      0.0000000E+00
  0.2510000      0.0000000E+00
  0.2515000      0.0000000E+00
  0.2520000      0.0000000E+00
  0.2525000      0.0000000E+00
  0.2530000      0.0000000E+00
  0.2535000      0.0000000E+00
  0.2540000      0.0000000E+00
  0.2545000      0.0000000E+00
  0.2550000      0.0000000E+00
  0.2555000      0.0000000E+00
  0.2560000      0.0000000E+00
  0.2565000      0.0000000E+00
  0.2570000      0.0000000E+00
  0.2575000      0.0000000E+00
  0.2580000      0.0000000E+00
  0.2585000      0.0000000E+00
  0.2590000      0.0000000E+00
  0.2595000      0.0000000E+00
  0.2600000      0.0000000E+00
  0.2605000      0.0000000E+00
  0.2610000      0.0000000E+00
  0.2615000      0.0000000E+00
  0.2620000      0.0000000E+00
  0.2625000      0.0000000E+00
  0.2630000      0.0000000E+00
  0.2635000      0.0000000E+00
  0.2640000      0.0000000E+00
  0.2645000      0.0000000E+00
  0.2650000      0.0000000E+00
  0.2655000      0.0000000E+00
  0.2660000      0.0000000E+00
  0.2665000      0.0000000E+00
  0.2670000      0.0000000E+00
  0.2675000      0.0000000E+00
  0.2680000      0.0000000E+00
  0.2685000      0.0000000E+00
  0.2690000      0.0000000E+00
  0.2695000      0.0000000E+00
  0.2700000      0.0000000E+00
  0.2705000      0.0000000E+00
  0.2710000      0.0000000E+00
  0.2715000      0.0000000E+00
  0.2720000      0.0000000E+00
  0.2725000      0.0000000E+00
  0.2730000      0.0000000E+00
  0.2735000      0.0000000E+00
  0.2740000      0.0000000E+00
  0.2745000      0.0000000E+00
  0.2750000      0.0000000E+00
  0.2755000      0.0000000E+00
  0.2760000      0.0000000E+00
  0.2765000      0.0000000E+00
  0.2770000      0.0000000E+00
  0.2775000      0.0000000E+00
  0.2780000      0.0000000E+00
  0.2785000      0.0000000E+00
  0.2790000      0.0000000E+00
  0.2795000      0.0000000E+00
  0.2800000      0.0000000E+00
  0.2805000      0.0000000E+00
  0.2810000      0.0000000E+00
  0.2815000      0.0000000E+00
  0.2820000      0.0000000E+00
  0.2825000      0.0000000E+00
  0.2830000      0.0000000E+00
  0.2835000      0.0000000E+00
  0.2840000      0.0000000E+00
  0.2845000      0.0000000E+00
  0.2850000      0.0000000E+00
  0.2855000     -1.6949114E-38
  0.2860000     -2.6304404E-38
  0.2865000     -2.6621616E-38
  0.2870000     -1.8958060E-38
  0.2875000      0.0000000E+00
  0.2880000      0.0000000E+00
  0.2885000      0.0000000E+00
  0.2890000     -2.2627663E-38
  0.2895000     -4.1386905E-38
  0.2900000     -5.5315601E-38
  0.2905000     -6.3285929E-38
  0.2910000     -5.7500825E-38
  0.2915000     -5.7555717E-38
  0.2920000     -8.0345006E-38
  0.2925000     -1.3067073E-37
  0.2930000     -1.3802344E-37
  0.2935000     -1.4555663E-37
  0.2940000     -2.2900647E-37
  0.2945000     -2.8358602E-37
  0.2950000     -1.8432177E-37
  0.2955000      0.0000000E+00
  0.2960000      1.7268883E-37
  0.2965000      3.5242080E-37
  0.2970000      5.4082013E-37
  0.2975000      7.1013645E-37
  0.2980000      7.3255054E-37
  0.2985000      5.0159813E-37
  0.2990000      2.7619978E-37
  0.2995000      1.7077119E-37
  0.3000000     -7.1011764E-38
  0.3005000     -4.2802606E-37
  0.3010000     -8.2414537E-37
  0.3015000     -1.2600176E-36
  0.3020000     -1.7715946E-36
  0.3025000     -2.3146357E-36
  0.3030000     -2.8103303E-36
  0.3035000     -3.3117613E-36
  0.3040000     -3.8403097E-36
  0.3045000     -4.3758771E-36
  0.3050000     -4.8396621E-36
  0.3055000     -5.3368652E-36
  0.3060000     -5.6286833E-36
  0.3065000     -5.5988020E-36
  0.3070000     -5.3699163E-36
  0.3075000     -5.0565080E-36
  0.3080000     -4.8383126E-36
  0.3085000     -4.6444410E-36
  0.3090000     -4.4369918E-36
  0.3095000     -4.2299261E-36
  0.3100000     -4.0495364E-36
  0.3105000     -3.8534881E-36
  0.3110000     -3.6086019E-36
  0.3115000     -3.3370802E-36
  0.3120000     -3.0800424E-36
  0.3125000     -2.9420800E-36
  0.3130000     -2.9709264E-36
  0.3135000     -3.1535857E-36
  0.3140000     -3.6442524E-36
  0.3145000     -4.3967180E-36
  0.3150000     -5.2650908E-36
  0.3155000     -6.4673017E-36
  0.3160000     -7.7781401E-36
  0.3165000     -8.9328968E-36
  0.3170000     -1.0136236E-35
  0.3175000     -1.1553893E-35
  0.3180000     -1.3510234E-35
  0.3185000     -1.5257848E-35
  0.3190000     -1.6337595E-35
  0.3195000     -1.7073040E-35
  0.3200000     -1.7395148E-35
  0.3205000     -1.7416714E-35
  0.3210000     -1.6738801E-35
  0.3215000     -1.5110307E-35
  0.3220000     -1.2786979E-35
  0.3225000     -9.8148211E-36
  0.3230000     -6.2317939E-36
  0.3235000     -2.1216443E-36
  0.3240000      2.4599686E-36
  0.3245000      7.3273103E-36
  0.3250000      1.2212919E-35
  0.3255000      1.6930567E-35
  0.3260000      2.1207294E-35
  0.3265000      2.4897651E-35
  0.3270000      2.8029841E-35
  0.3275000      3.0471428E-35
  0.3280000      3.1457075E-35
  0.3285000      3.0172882E-35
  0.3290000      2.6428677E-35
  0.3295000      1.9957359E-35
  0.3300000      1.0718381E-35
  0.3305000     -9.3282524E-37
  0.3310000     -1.4569050E-35
  0.3315000     -2.9527402E-35
  0.3320000     -4.5034569E-35
  0.3325000     -6.0321968E-35
  0.3330000     -7.4568994E-35
  0.3335000     -8.7305573E-35
  0.3340000     -9.7820358E-35
  0.3345000     -1.0556924E-34
  0.3350000     -1.1077450E-34
  0.3355000     -1.1343701E-34
  0.3360000     -1.1327321E-34
  0.3365000     -1.1002186E-34
  0.3370000     -1.0325422E-34
  0.3375000     -9.2436468E-35
  0.3380000     -7.7239868E-35
  0.3385000     -5.7380408E-35
  0.3390000     -3.2487470E-35
  0.3395000     -2.2461041E-36
  0.3400000      3.3482238E-35
  0.3405000      7.4597388E-35
  0.3410000      1.2077426E-34
  0.3415000      1.7135542E-34
  0.3420000      2.2552148E-34
  0.3425000      2.8196886E-34
  0.3430000      3.3891660E-34
  0.3435000      3.9447010E-34
  0.3440000      4.4595289E-34
  0.3445000      4.9035003E-34
  0.3450000      5.2541213E-34
  0.3455000      5.4890531E-34
  0.3460000      5.5799307E-34
  0.3465000      5.4980424E-34
  0.3470000      5.2163310E-34
  0.3475000      4.7102963E-34
  0.3480000      3.9593547E-34
  0.3485000      2.9487340E-34
  0.3490000      1.6708084E-34
  0.3495000      1.2668311E-35
  0.3500000     -1.6724656E-34
  0.3505000     -3.7035761E-34
  0.3510000     -5.9325111E-34
  0.3515000     -8.3132108E-34
  0.3520000     -1.0785922E-33
  0.3525000     -1.3278349E-33
  0.3530000     -1.5706155E-33
  0.3535000     -1.7974051E-33
  0.3540000     -1.9976281E-33
  0.3545000     -2.1602014E-33
  0.3550000     -2.2738103E-33
  0.3555000     -2.3270123E-33
  0.3560000     -2.3088399E-33
  0.3565000     -2.2092704E-33
  0.3570000     -2.0197408E-33
  0.3575000     -1.7336411E-33
  0.3580000     -1.3468171E-33
  0.3585000     -8.5807974E-34
  0.3590000     -2.6961873E-34
  0.3595000      4.1265178E-34
  0.3600000      1.1787962E-33
  0.3605000      2.0146700E-33
  0.3610000      2.9018612E-33
  0.3615000      3.8177342E-33
  0.3620000      4.7356344E-33
  0.3625000      5.6252794E-33
  0.3630000      6.4532855E-33
  0.3635000      7.1838633E-33
  0.3640000      7.7797111E-33
  0.3645000      8.2030543E-33
  0.3650000      8.4168268E-33
  0.3655000      8.3859679E-33
  0.3660000      8.0788288E-33
  0.3665000      7.4686033E-33
  0.3670000      6.5347869E-33
  0.3675000      5.2646274E-33
  0.3680000      3.6544970E-33
  0.3685000      1.7111653E-33
  0.3690000     -5.4711309E-34
  0.3695000     -3.0897065E-33
  0.3700000     -5.8729810E-33
  0.3705000     -8.8399989E-33
  0.3710000     -1.1920624E-32
  0.3715000     -1.5032045E-32
  0.3720000     -1.8079778E-32
  0.3725000     -2.0959180E-32
  0.3730000     -2.3557480E-32
  0.3735000     -2.5756321E-32
  0.3740000     -2.7434822E-32
  0.3745000     -2.8473089E-32
  0.3750000     -2.8756168E-32
  0.3755000     -2.8178263E-32
  0.3760000     -2.6647237E-32
  0.3765000     -2.4089210E-32
  0.3770000     -2.0453151E-32
  0.3775000     -1.5715300E-32
  0.3780000     -9.8833104E-33
  0.3785000     -2.9998913E-33
  0.3790000      4.8542664E-33
  0.3795000      1.3558330E-32
  0.3800000      2.2950183E-32
  0.3805000      3.2826464E-32
  0.3810000      4.2943906E-32
  0.3815000      5.3022107E-32
  0.3820000      6.2747694E-32
  0.3825000      7.1780081E-32
  0.3830000      7.9758708E-32
  0.3835000      8.6311725E-32
  0.3840000      9.1066006E-32
  0.3845000      9.3658353E-32
  0.3850000      9.3747761E-32
  0.3855000      9.1028302E-32
  0.3860000      8.5242372E-32
  0.3865000      7.6194198E-32
  0.3870000      6.3762846E-32
  0.3875000      4.7914443E-32
  0.3880000      2.8713404E-32
  0.3885000      6.3316556E-33
  0.3890000     -1.8944023E-32
  0.3895000     -4.6707360E-32
  0.3900000     -7.6431095E-32
  0.3905000     -1.0746872E-31
  0.3910000     -1.3906010E-31
  0.3915000     -1.7034091E-31
  0.3920000     -2.0035622E-31
  0.3925000     -2.2807835E-31
  0.3930000     -2.5242883E-31
  0.3935000     -2.7230395E-31
  0.3940000     -2.8660407E-31
  0.3945000     -2.9426648E-31
  0.3950000     -2.9430015E-31
  0.3955000     -2.8582230E-31
  0.3960000     -2.6809650E-31
  0.3965000     -2.4056981E-31
  0.3970000     -2.0290923E-31
  0.3975000     -1.5503595E-31
  0.3980000     -9.7155384E-32
  0.3985000     -2.9782725E-32
  0.3990000      4.6237591E-32
  0.3995000      1.2971974E-31
  0.4000000      2.1913295E-31
  0.4005000      3.1260728E-31
  0.4010000      4.0794939E-31
  0.4015000      5.0266941E-31
  0.4020000      5.9401928E-31
  0.4025000      6.7904199E-31
  0.4030000      7.5463192E-31
  0.4035000      8.1760663E-31
  0.4040000      8.6478712E-31
  0.4045000      8.9308776E-31
  0.4050000      8.9961279E-31
  0.4055000      8.8175787E-31
  0.4060000      8.3731253E-31
  0.4065000      7.6456518E-31
  0.4070000      6.6240423E-31
  0.4075000      5.3041211E-31
  0.4080000      3.6895112E-31
  0.4085000      1.7923752E-31
  0.4090000     -3.6602114E-32
  0.4095000     -2.7549241E-31
  0.4100000     -5.3339213E-31
  0.4105000     -8.0530325E-31
  0.4110000     -1.0853055E-30
  0.4115000     -1.3666206E-30
  0.4120000     -1.6417065E-30
  0.4125000     -1.9023819E-30
  0.4130000     -2.1399805E-30
  0.4135000     -2.3455365E-30
  0.4140000     -2.5099945E-30
  0.4145000     -2.6244452E-30
  0.4150000     -2.6803812E-30
  0.4155000     -2.6699690E-30
  0.4160000     -2.5863293E-30
  0.4165000     -2.4238244E-30
  0.4170000     -2.1783357E-30
  0.4175000     -1.8475341E-30
  0.4180000     -1.4311314E-30
  0.4185000     -9.3110024E-31
  0.4190000     -3.5185609E-31
  0.4195000      2.9960466E-31
  0.4200000      1.0136219E-30
  0.4205000      1.7778511E-30
  0.4210000      2.5773114E-30
  0.4215000      3.3945087E-30
  0.4220000      4.2096367E-30
  0.4225000      5.0008614E-30
  0.4230000      5.7446887E-30
  0.4235000      6.4164094E-30
  0.4240000      6.9906239E-30
  0.4245000      7.4418407E-30
  0.4250000      7.7451386E-30
  0.4255000      7.8768774E-30
  0.4260000      7.8154493E-30
  0.4265000      7.5420620E-30
  0.4270000      7.0415158E-30
  0.4275000      6.3029740E-30
  0.4280000      5.3207042E-30
  0.4285000      4.0947520E-30
  0.4290000      2.6315314E-30
  0.4295000      9.4431956E-31
  0.4300000     -9.4638072E-31
  0.4305000     -3.0126275E-30
  0.4310000     -5.2190027E-30
  0.4315000     -7.5227629E-30
  0.4320000     -9.8741939E-30
  0.4325000     -1.2217183E-29
  0.4330000     -1.4490015E-29
  0.4335000     -1.6626397E-29
  0.4340000     -1.8556708E-29
  0.4345000     -2.0209461E-29
  0.4350000     -2.1512949E-29
  0.4355000     -2.2397089E-29
  0.4360000     -2.2795414E-29
  0.4365000     -2.2647155E-29
  0.4370000     -2.1899394E-29
  0.4375000     -2.0509234E-29
  0.4380000     -1.8445951E-29
  0.4385000     -1.5693023E-29
  0.4390000     -1.2250020E-29
  0.4395000     -8.1342629E-30
  0.4400000     -3.3821891E-30
  0.4405000      1.9496193E-30
  0.4410000      7.7838520E-30
  0.4415000      1.4022329E-29
  0.4420000      2.0546406E-29
  0.4425000      2.7217958E-29
  0.4430000      3.3880932E-29
  0.4435000      4.0363549E-29
  0.4440000      4.6481134E-29
  0.4445000      5.2039536E-29
  0.4450000      5.6839194E-29
  0.4455000      6.0679739E-29
  0.4460000      6.3365033E-29
  0.4465000      6.4708658E-29
  0.4470000      6.4539736E-29
  0.4475000      6.2708881E-29
  0.4480000      5.9094235E-29
  0.4485000      5.3607351E-29
  0.4490000      4.6198883E-29
  0.4495000      3.6863777E-29
  0.4500000      2.5645918E-29
  0.4505000      1.2641881E-29
  0.4510000     -1.9962495E-30
  0.4515000     -1.8059201E-29
  0.4520000     -3.5280184E-29
  0.4525000     -5.3335970E-29
  0.4530000     -7.1849609E-29
  0.4535000     -9.0394780E-29
  0.4540000     -1.0850178E-28
  0.4545000     -1.2566535E-28
  0.4550000     -1.4135416E-28
  0.4555000     -1.5502188E-28
  0.4560000     -1.6611978E-28
  0.4565000     -1.7411063E-28
  0.4570000     -1.7848375E-28
  0.4575000     -1.7877073E-28
  0.4580000     -1.7456164E-28
  0.4585000     -1.6552153E-28
  0.4590000     -1.5140622E-28
  0.4595000     -1.3207772E-28
  0.4600000     -1.0751807E-28
  0.4605000     -7.7841568E-29
  0.4610000     -4.3304800E-29
  0.4615000     -4.3138450E-30
  0.4620000      3.8571679E-29
  0.4625000      8.4638055E-29
  0.4630000      1.3302096E-28
  0.4635000      1.8271324E-28
  0.4640000      2.3257715E-28
  0.4645000      2.8136103E-28
  0.4650000      3.2772067E-28
  0.4655000      3.7024535E-28
  0.4660000      4.0748773E-28
  0.4665000      4.3799764E-28
  0.4670000      4.6035927E-28
  0.4675000      4.7323132E-28
  0.4680000      4.7538870E-28
  0.4685000      4.6576497E-28
  0.4690000      4.4349506E-28
  0.4695000      4.0795679E-28
  0.4700000      3.5880963E-28
  0.4705000      2.9603005E-28
  0.4710000      2.1994195E-28
  0.4715000      1.3124074E-28
  0.4720000      3.1010075E-29
  0.4725000     -7.9269922E-29
  0.4730000     -1.9772421E-28
  0.4735000     -3.2209443E-28
  0.4740000     -4.4976213E-28
  0.4745000     -5.7778332E-28
  0.4750000     -7.0293448E-28
  0.4755000     -8.2177100E-28
  0.4760000     -9.3069515E-28
  0.4765000     -1.0260364E-27
  0.4770000     -1.1041392E-27
  0.4775000     -1.1614597E-27
  0.4780000     -1.1946672E-27
  0.4785000     -1.2007505E-27
  0.4790000     -1.1771248E-27
  0.4795000     -1.1217373E-27
  0.4800000     -1.0331677E-27
  0.4805000     -9.1072287E-28
  0.4810000     -7.5451950E-28
  0.4815000     -5.6555361E-28
  0.4820000     -3.4575325E-28
  0.4825000     -9.8011327E-29
  0.4830000      1.7380422E-28