  0.0000000E+00  0.0000000E+00
  5.0000002E-04  0.0000000E+00
  1.0000000E-03  0.0000000E+00
  1.5000000E-03  0.0000000E+00
  2.0000001E-03  0.0000000E+00
  2.4999999E-03  0.0000000E+00
  3.0000000E-03  0.0000000E+00
  3.5000001E-03  0.0000000E+00
  4.0000002E-03  0.0000000E+00
  4.4999998E-03  0.0000000E+00
  4.9999999E-03  0.0000000E+00
  5.5000000E-03  0.0000000E+00
  6.0000001E-03  0.0000000E+00
  6.5000001E-03  0.0000000E+00
  7.0000002E-03  0.0000000E+00
  7.4999998E-03  0.0000000E+00
  8.0000004E-03  0.0000000E+00
  8.5000005E-03  0.0000000E+00
  8.9999996E-03  0.0000000E+00
  9.4999997E-03  0.0000000E+00
  9.9999998E-03  0.0000000E+00
  1.0500000E-02  0.0000000E+00
  1.1000000E-02  0.0000000E+00
  1.1500000E-02  0.0000000E+00
  1.2000000E-02  0.0000000E+00
  1.2500000E-02  0.0000000E+00
  1.3000000E-02  0.0000000E+00
  1.3500000E-02  0.0000000E+00
  1.4000000E-02  0.0000000E+00
  1.4500000E-02  0.0000000E+00
  1.5000000E-02  0.0000000E+00
  1.5500000E-02  0.0000000E+00
  1.6000001E-02  0.0000000E+00
  1.6500000E-02  0.0000000E+00
  1.7000001E-02  0.0000000E+00
  1.7500000E-02  0.0000000E+00
  1.7999999E-02  0.0000000E+00
  1.8500000E-02  0.0000000E+00
  1.8999999E-02  0.0000000E+00
  1.9500000E-02  0.0000000E+00
  2.0000000E-02  0.0000000E+00
  2.0500001E-02  0.0000000E+00
  2.1000000E-02  0.0000000E+00
  2.1500001E-02  0.0000000E+00
  2.2000000E-02  0.0000000E+00
  2.2500001E-02  0.0000000E+00
  2.3000000E-02  0.0000000E+00
  2.3499999E-02  0.0000000E+00
  2.4000000E-02  0.0000000E+00
  2.4499999E-02  0.0000000E+00
  2.5000000E-02  0.0000000E+00
  2.5500000E-02  0.0000000E+00
  2.6000001E-02  0.0000000E+00
  2.6500000E-02  0.0000000E+00
  2.7000001E-02  0.0000000E+00
  2.7500000E-02  0.0000000E+00
  2.8000001E-02  0.0000000E+00
  2.8500000E-02  0.0000000E+00
  2.8999999E-02  0.0000000E+00
  2.9500000E-02  0.0000000E+00
  2.9999999E-02  0.0000000E+00
  3.0500000E-02  0.0000000E+00
  3.0999999E-02  0.0000000E+00
  3.1500001E-02  0.0000000E+00
  3.2000002E-02  0.0000000E+00
  3.2499999E-02  0.0000000E+00
  3.3000000E-02  0.0000000E+00
  3.3500001E-02  0.0000000E+00
  3.4000002E-02  0.0000000E+00
  3.4499999E-02  0.0000000E+00
  3.5000000E-02  0.0000000E+00
  3.5500001E-02  0.0000000E+00
  3.5999998E-02  0.0000000E+00
  3.6499999E-02  0.0000000E+00
  3.7000000E-02  0.0000000E+00
  3.7500001E-02  0.0000000E+00
  3.7999999E-02  0.0000000E+00
  3.8500000E-02  0.0000000E+00
  3.9000001E-02  0.0000000E+00
  3.9500002E-02  0.0000000E+00
  3.9999999E-02  0.0000000E+00
  4.0500000E-02  0.0000000E+00
  4.1000001E-02  0.0000000E+00
  4.1499998E-02  0.0000000E+00
  4.1999999E-02  0.0000000E+00
  4.2500000E-02  0.0000000E+00
  4.3000001E-02  0.0000000E+00
  4.3499999E-02  0.0000000E+00
  4.4000000E-02  0.0000000E+00
  4.4500001E-02  0.0000000E+00
  4.5000002E-02  0.0000000E+00
  4.5499999E-02  0.0000000E+00
  4.6000000E-02  0.0000000E+00
  4.6500001E-02  0.0000000E+00
  4.6999998E-02  0.0000000E+00
  4.7499999E-02  0.0000000E+00
  4.8000000E-02  0.0000000E+00
  4.8500001E-02  0.0000000E+00
  4.8999999E-02  0.0000000E+00
  4.9500000E-02  0.0000000E+00
  5.0000001E-02  0.0000000E+00
  5.0500002E-02  0.0000000E+00
  5.0999999E-02  0.0000000E+00
  5.1500000E-02  0.0000000E+00
  5.2000001E-02  0.0000000E+00
  5.2499998E-02  0.0000000E+00
  5.2999999E-02  0.0000000E+00
  5.3500000E-02  0.0000000E+00
  5.4000001E-02  0.0000000E+00
  5.4499999E-02  0.0000000E+00
  5.5000000E-02  0.0000000E+00
  5.5500001E-02  0.0000000E+00
  5.6000002E-02  0.0000000E+00
  5.6499999E-02  0.0000000E+00
  5.7000000E-02  0.0000000E+00
  5.7500001E-02  0.0000000E+00
  5.7999998E-02  0.0000000E+00
  5.8499999E-02  0.0000000E+00
  5.9000000E-02  0.0000000E+00
  5.9500001E-02  0.0000000E+00
  5.9999999E-02  0.0000000E+00
  6.0500000E-02  0.0000000E+00
  6.1000001E-02  0.0000000E+00
  6.1500002E-02  0.0000000E+00
  6.1999999E-02  0.0000000E+00
  6.2500000E-02  0.0000000E+00
  6.3000001E-02  0.0000000E+00
  6.3500002E-02  0.0000000E+00
  6.4000003E-02  0.0000000E+00
  6.4499997E-02  0.0000000E+00
  6.4999998E-02  0.0000000E+00
  6.5499999E-02  0.0000000E+00
  6.6000000E-02  0.0000000E+00
  6.6500001E-02  0.0000000E+00
  6.7000002E-02  0.0000000E+00
  6.7500003E-02  0.0000000E+00
  6.8000004E-02  0.0000000E+00
  6.8499997E-02  0.0000000E+00
  6.8999998E-02  0.0000000E+00
  6.9499999E-02  0.0000000E+00
  7.0000000E-02  0.0000000E+00
  7.0500001E-02  0.0000000E+00
  7.1000002E-02  0.0000000E+00
  7.1500003E-02  0.0000000E+00
  7.1999997E-02  0.0000000E+00
  7.2499998E-02  0.0000000E+00
  7.2999999E-02  0.0000000E+00
  7.3500000E-02  0.0000000E+00
  7.4000001E-02  0.0000000E+00
  7.4500002E-02  0.0000000E+00
  7.5000003E-02  0.0000000E+00
  7.5499997E-02  0.0000000E+00
  7.5999998E-02  0.0000000E+00
  7.6499999E-02  0.0000000E+00
  7.7000000E-02  0.0000000E+00
  7.7500001E-02  0.0000000E+00
  7.8000002E-02  0.0000000E+00
  7.8500003E-02  0.0000000E+00
  7.9000004E-02  0.0000000E+00
  7.9499997E-02  0.0000000E+00
  7.9999998E-02  0.0000000E+00
  8.0499999E-02  0.0000000E+00
  8.1000000E-02  0.0000000E+00
  8.1500001E-02  0.0000000E+00
  8.2000002E-02  0.0000000E+00
  8.2500003E-02  0.0000000E+00
  8.2999997E-02  0.0000000E+00
  8.3499998E-02  0.0000000E+00
  8.3999999E-02  0.0000000E+00
  8.4500000E-02  0.0000000E+00
  8.5000001E-02  0.0000000E+00
  8.5500002E-02  0.0000000E+00
  8.6000003E-02  0.0000000E+00
  8.6499996E-02  0.0000000E+00
  8.6999997E-02  0.0000000E+00
  8.7499999E-02  0.0000000E+00
  8.8000000E-02  0.0000000E+00
  8.8500001E-02  0.0000000E+00
  8.9000002E-02  0.0000000E+00
  8.9500003E-02  0.0000000E+00
  9.0000004E-02  0.0000000E+00
  9.0499997E-02  0.0000000E+00
  9.0999998E-02  0.0000000E+00
  9.1499999E-02  0.0000000E+00
  9.2000000E-02  0.0000000E+00
  9.2500001E-02  0.0000000E+00
  9.3000002E-02  0.0000000E+00
  9.3500003E-02  0.0000000E+00
  9.3999997E-02  0.0000000E+00
  9.4499998E-02  0.0000000E+00
  9.4999999E-02  0.0000000E+00
  9.5500000E-02  0.0000000E+00
  9.6000001E-02  0.0000000E+00
  9.6500002E-02  0.0000000E+00
  9.7000003E-02  0.0000000E+00
  9.7499996E-02  0.0000000E+00
  9.7999997E-02  0.0000000E+00
  9.8499998E-02  0.0000000E+00
  9.8999999E-02  0.0000000E+00
  9.9500000E-02  0.0000000E+00
  0.1000000      0.0000000E+00
  0.1005000      0.0000000E+00
  0.1010000      0.0000000E+00
  0.1015000      0.0000000E+00
  0.1020000      0.0000000E+00
  0.1025000      0.0000000E+00
  0.1030000      0.0000000E+00
  0.1035000      0.0000000E+00
  0.1040000      0.0000000E+00
  0.1045000      0.0000000E+00
  0.1050000      0.0000000E+00
  0.1055000      0.0000000E+00
  0.1060000      0.0000000E+00
  0.1065000      0.0000000E+00
  0.1070000      0.0000000E+00
  0.1075000      0.0000000E+00
  0.1080000      0.0000000E+00
  0.1085000      0.0000000E+00
  0.1090000      0.0000000E+00
  0.1095000      0.0000000E+00
  0.1100000      0.0000000E+00
  0.1105000      0.0000000E+00
  0.1110000      0.0000000E+00
  0.1115000      0.0000000E+00
  0.1120000      0.0000000E+00
  0.1125000      0.0000000E+00
  0.1130000      0.0000000E+00
  0.1135000      0.0000000E+00
  0.1140000      0.0000000E+00
  0.1145000      0.0000000E+00
  0.1150000      0.0000000E+00
  0.1155000      0.0000000E+00
  0.1160000      0.0000000E+00
  0.1165000      0.0000000E+00
  0.1170000      0.0000000E+00
  0.1175000      0.0000000E+00
  0.1180000      0.0000000E+00
  0.1185000      0.0000000E+00
  0.1190000      0.0000000E+00
  0.1195000      0.0000000E+00
  0.1200000      0.0000000E+00
  0.1205000      0.0000000E+00
  0.1210000      0.0000000E+00
  0.1215000      0.0000000E+00
  0.1220000      0.0000000E+00
  0.1225000      0.0000000E+00
  0.1230000      0.0000000E+00
  0.1235000      0.0000000E+00
  0.1240000      0.0000000E+00
  0.1245000      0.0000000E+00
  0.1250000      0.0000000E+00
  0.1255000      0.0000000E+00
  0.1260000      0.0000000E+00
  0.1265000      0.0000000E+00
  0.1270000      0.0000000E+00
  0.1275000      0.0000000E+00
  0.1280000      0.0000000E+00
  0.1285000      0.0000000E+00
  0.1290000      0.0000000E+00
  0.1295000      0.0000000E+00
  0.1300000      0.0000000E+00
  0.1305000      0.0000000E+00
  0.1310000      0.0000000E+00
  0.1315000      0.0000000E+00
  0.1320000      0.0000000E+00
  0.1325000      0.0000000E+00
  0.1330000      0.0000000E+00
  0.1335000      0.0000000E+00
  0.1340000      0.0000000E+00
  0.1345000      0.0000000E+00
  0.1350000      0.0000000E+00
  0.1355000      0.0000000E+00
  0.1360000      0.0000000E+00
  0.1365000      0.0000000E+00
  0.1370000      0.0000000E+00
  0.1375000      0.0000000E+00
  0.1380000      0.0000000E+00
  0.1385000      0.0000000E+00
  0.1390000      0.0000000E+00
  0.1395000      0.0000000E+00
  0.1400000      0.0000000E+00
  0.1405000      0.0000000E+00
  0.1410000      0.0000000E+00
  0.1415000      0.0000000E+00
  0.1420000      0.0000000E+00
  0.1425000      0.0000000E+00
  0.1430000      0.0000000E+00
  0.1435000      0.0000000E+00
  0.1440000      0.0000000E+00
  0.1445000      0.0000000E+00
  0.1450000      0.0000000E+00
  0.1455000      0.0000000E+00
  0.1460000      0.0000000E+00
  0.1465000      0.0000000E+00
  0.1470000      0.0000000E+00
  0.1475000      0.0000000E+00
  0.1480000      0.0000000E+00
  0.1485000      0.0000000E+00
  0.1490000      0.0000000E+00
  0.1495000      0.0000000E+00
  0.1500000      0.0000000E+00
  0.1505000      0.0000000E+00
  0.1510000      0.0000000E+00
  0.1515000      0.0000000E+00
  0.1520000      0.0000000E+00
  0.1525000      0.0000000E+00
  0.1530000      0.0000000E+00
  0.1535000      0.0000000E+00
  0.1540000      0.0000000E+00
  0.1545000      0.0000000E+00
  0.1550000      0.0000000E+00
  0.1555000      0.0000000E+00
  0.1560000      0.0000000E+00
  0.1565000      0.0000000E+00
  0.1570000      0.0000000E+00
  0.1575000      0.0000000E+00
  0.1580000      0.0000000E+00
  0.1585000      0.0000000E+00
  0.1590000      0.0000000E+00
  0.1595000      0.0000000E+00
  0.1600000      0.0000000E+00
  0.1605000      0.0000000E+00
  0.1610000      0.0000000E+00
  0.1615000      0.0000000E+00
  0.1620000      0.0000000E+00
  0.1625000      0.0000000E+00
  0.1630000      0.0000000E+00
  0.1635000      0.0000000E+00
  0.1640000      0.0000000E+00
  0.1645000      0.0000000E+00
  0.1650000      0.0000000E+00
  0.1655000      0.0000000E+00
  0.1660000      0.0000000E+00
  0.1665000      0.0000000E+00
  0.1670000      0.0000000E+00
  0.1675000      0.0000000E+00
  0.1680000      0.0000000E+00
  0.1685000      0.0000000E+00
  0.1690000      0.0000000E+00
  0.1695000      0.0000000E+00
  0.1700000      0.0000000E+00
  0.1705000      0.0000000E+00
  0.1710000      0.0000000E+00
  0.1715000      0.0000000E+00
  0.1720000      0.0000000E+00
  0.1725000      0.0000000E+00
  0.1730000      0.0000000E+00
  0.1735000      0.0000000E+00
  0.1740000      0.0000000E+00
  0.1745000      0.0000000E+00
  0.1750000      0.0000000E+00
  0.1755000      0.0000000E+00
  0.1760000      0.0000000E+00
  0.1765000      0.0000000E+00
  0.1770000      0.0000000E+00
  0.1775000      0.0000000E+00
  0.1780000      0.0000000E+00
  0.1785000      0.0000000E+00
  0.1790000      0.0000000E+00
  0.1795000      0.0000000E+00
  0.1800000      0.0000000E+00
  0.1805000      0.0000000E+00
  0.1810000      0.0000000E+00
  0.1815000      0.0000000E+00
  0.1820000      0.0000000E+00
  0.1825000      0.0000000E+00
  0.1830000      0.0000000E+00
  0.1835000      0.0000000E+00
  0.1840000      0.0000000E+00
  0.1845000      0.0000000E+00
  0.1850000      0.0000000E+00
  0.1855000      0.0000000E+00
  0.1860000      0.0000000E+00
  0.1865000      0.0000000E+00
  0.1870000      0.0000000E+00
  0.1875000      0.0000000E+00
  0.1880000      0.0000000E+00
  0.1885000      0.0000000E+00
  0.1890000      0.0000000E+00
  0.1895000      0.0000000E+00
  0.1900000      0.0000000E+00
  0.1905000      0.0000000E+00
  0.1910000      0.0000000E+00
  0.1915000      0.0000000E+00
  0.1920000      0.0000000E+00
  0.1925000      0.0000000E+00
  0.1930000      0.0000000E+00
  0.1935000      0.0000000E+00
  0.1940000      0.0000000E+00
  0.1945000      0.0000000E+00
  0.1950000      0.0000000E+00
  0.1955000      0.0000000E+00
  0.1960000      0.0000000E+00
  0.1965000      0.0000000E+00
  0.1970000      0.0000000E+00
  0.1975000      0.0000000E+00
  0.1980000      0.0000000E+00
  0.1985000      0.0000000E+00
  0.1990000      0.0000000E+00
  0.1995000      0.0000000E+00
  0.2000000      0.0000000E+00
  0.2005000      0.0000000E+00
  0.2010000      0.0000000E+00
  0.2015000      0.0000000E+00
  0.2020000      0.0000000E+00
  0.2025000      0.0000000E+00
  0.2030000      0.0000000E+00
  0.2035000      0.0000000E+00
  0.2040000      0.0000000E+00
  0.2045000      0.0000000E+00
  0.2050000      0.0000000E+00
  0.2055000      0.0000000E+00
  0.2060000      0.0000000E+00
  0.2065000      0.0000000E+00
  0.2070000      0.0000000E+00
  0.2075000      0.0000000E+00
  0.2080000      0.0000000E+00
  0.2085000      0.0000000E+00
  0.2090000      0.0000000E+00
  0.2095000      0.0000000E+00
  0.2100000      0.0000000E+00
  0.2105000      0.0000000E+00
  0.2110000      0.0000000E+00
  0.2115000      0.0000000E+00
  0.2120000      0.0000000E+00
  0.2125000      0.0000000E+00
  0.2130000      0.0000000E+00
  0.2135000      0.0000000E+00
  0.2140000      0.0000000E+00
  0.2145000      0.0000000E+00
  0.2150000      0.0000000E+00
  0.2155000      0.0000000E+00
  0.2160000      0.0000000E+00
  0.2165000      0.0000000E+00
  0.2170000      0.0000000E+00
  0.2175000      0.0000000E+00
  0.2180000      0.0000000E+00
  0.2185000      0.0000000E+00
  0.2190000      0.0000000E+00
  0.2195000      0.0000000E+00
  0.2200000      0.0000000E+00
  0.2205000      0.0000000E+00
  0.2210000      0.0000000E+00
  0.2215000      0.0000000E+00
  0.2220000      0.0000000E+00
  0.2225000      0.0000000E+00
  0.2230000      0.0000000E+00
  0.2235000      0.0000000E+00
  0.2240000      0.0000000E+00
  0.2245000      0.0000000E+00
  0.2250000      0.0000000E+00
  0.2255000      0.0000000E+00
  0.2260000      0.0000000E+00
  0.2265000      0.0000000E+00
  0.2270000      0.0000000E+00
  0.2275000      0.0000000E+00
  0.2280000      0.0000000E+00
  0.2285000      0.0000000E+00
  0.2290000      0.0000000E+00
  0.2295000      0.0000000E+00
  0.2300000      0.0000000E+00
  0.2305000      0.0000000E+00
  0.2310000      0.0000000E+00
  0.2315000      0.0000000E+00
  0.2320000      0.0000000E+00
  0.2325000      0.0000000E+00
  0.2330000      0.0000000E+00
  0.2335000      0.0000000E+00
  0.2340000      0.0000000E+00
  0.2345000      0.0000000E+00
  0.2350000      0.0000000E+00
  0.2355000      0.0000000E+00
  0.2360000      0.0000000E+00
  0.2365000      0.0000000E+00
  0.2370000      0.0000000E+00
  0.2375000      0.0000000E+00
  0.2380000      0.0000000E+00
  0.2385000      0.0000000E+00
  0.2390000      0.0000000E+00
  0.2395000      0.0000000E+00
  0.2400000      0.0000000E+00
  0.2405000      0.0000000E+00
  0.2410000      0.0000000E+00
  0.2415000      0.0000000E+00
  0.2420000      0.0000000E+00
  0.2425000      0.0000000E+00
  0.2430000      0.0000000E+00
  0.2435000      0.0000000E+00
  0.2440000      0.0000000E+00
  0.2445000      0.0000000E+00
  0.2450000      0.0000000E+00
  0.2455000      0.0000000E+00
  0.2460000      0.0000000E+00
  0.2465000      0.0000000E+00
  0.2470000      0.0000000E+00
  0.2475000      0.0000000E+00
  0.2480000      0.0000000E+00
  0.2485000      0.0000000E+00
  0.2490000      0.0000000E+00
  0.2495000      0.0000000E+00
  0.2500000      0.0000000E+00
  0.2505000      0.0000000E+00
  0.2510000      0.0000000E+00
  0.2515000      0.0000000E+00
  0.2520000      0.0000000E+00
  0.2525000      0.0000000E+00
  0.2530000      0.0000000E+00
  0.2535000      0.0000000E+00
  0.2540000      0.0000000E+00
  0.2545000      0.0000000E+00
  0.2550000      0.0000000E+00
  0.2555000      0.0000000E+00
  0.2560000      0.0000000E+00
  0.2565000      0.0000000E+00
  0.2570000      0.0000000E+00
  0.2575000      0.0000000E+00
  0.2580000      0.0000000E+00
  0.2585000      0.0000000E+00
  0.2590000      0.0000000E+00
  0.2595000      0.0000000E+00
  0.2600000      0.0000000E+00
  0.2605000      0.0000000E+00
  0.2610000      0.0000000E+00
  0.2615000      0.0000000E+00
  0.2620000      0.0000000E+00
  0.2625000      0.0000000E+00
  0.2630000      0.0000000E+00
  0.2635000      0.0000000E+00
  0.2640000      0.0000000E+00
  0.2645000      0.0000000E+00
  0.2650000      0.0000000E+00
  0.2655000      0.0000000E+00
  0.2660000      0.0000000E+00
  0.2665000      0.0000000E+00
  0.2670000      0.0000000E+00
  0.2675000      0.0000000E+00
  0.2680000      0.0000000E+00
  0.2685000      0.0000000E+00
  0.2690000      0.0000000E+00
  0.2695000      0.0000000E+00
  0.2700000      0.0000000E+00
  0.2705000      0.0000000E+00
  0.2710000      0.0000000E+00
  0.2715000      0.0000000E+00
  0.2720000      0.0000000E+00
  0.2725000      0.0000000E+00
  0.2730000      0.0000000E+00
  0.2735000      0.0000000E+00
  0.2740000      0.0000000E+00
  0.2745000      0.0000000E+00
  0.2750000      0.0000000E+00
  0.2755000      0.0000000E+00
  0.2760000      0.0000000E+00
  0.2765000      0.0000000E+00
  0.2770000      0.0000000E+00
  0.2775000      0.0000000E+00
  0.2780000      0.0000000E+00
  0.2785000      0.0000000E+00
  0.2790000      0.0000000E+00
  0.2795000      0.0000000E+00
  0.2800000      0.0000000E+00
  0.2805000      0.0000000E+00
  0.2810000      0.0000000E+00
  0.2815000      0.0000000E+00
  0.2820000      0.0000000E+00
  0.2825000      0.0000000E+00
  0.2830000      0.0000000E+00
  0.2835000      0.0000000E+00
  0.2840000      0.0000000E+00
  0.2845000      0.0000000E+00
  0.2850000      0.0000000E+00
  0.2855000      0.0000000E+00
  0.2860000      0.0000000E+00
  0.2865000      0.0000000E+00
  0.2870000      0.0000000E+00
  0.2875000      0.0000000E+00
  0.2880000      0.0000000E+00
  0.2885000      0.0000000E+00
  0.2890000      0.0000000E+00
  0.2895000      0.0000000E+00
  0.2900000      0.0000000E+00
  0.2905000      0.0000000E+00
  0.2910000      0.0000000E+00
  0.2915000      0.0000000E+00
  0.2920000      0.0000000E+00
  0.2925000      0.0000000E+00
  0.2930000      0.0000000E+00
  0.2935000     -1.2612974E-38
  0.2940000     -1.5664709E-38
  0.2945000     -1.7961243E-38
  0.2950000     -1.9322985E-38
  0.2955000     -1.9704929E-38
  0.2960000      0.0000000E+00
  0.2965000      0.0000000E+00
  0.2970000      0.0000000E+00
  0.2975000      0.0000000E+00
  0.2980000      0.0000000E+00
  0.2985000     -3.0182433E-38
  0.2990000     -5.5527909E-38
  0.2995000     -7.7895973E-38
  0.3000000     -9.2837851E-38
  0.3005000     -9.3966187E-38
  0.3010000     -7.7887975E-38
  0.3015000     -4.3567112E-38
  0.3020000      0.0000000E+00
  0.3025000      7.0149461E-38
  0.3030000      1.4111840E-37
  0.3035000      2.0413876E-37
  0.3040000      2.6312421E-37
  0.3045000      3.0750190E-37
  0.3050000      3.3340182E-37
  0.3055000      3.3882038E-37
  0.3060000      3.2480471E-37
  0.3065000      2.9441373E-37
  0.3070000      2.5123306E-37
  0.3075000      1.9865650E-37
  0.3080000      1.3884254E-37
  0.3085000      7.2103790E-38
  0.3090000      0.0000000E+00
  0.3095000     -9.0369177E-38
  0.3100000     -1.9209824E-37
  0.3105000     -3.1093445E-37
  0.3110000     -4.4734604E-37
  0.3115000     -5.9890429E-37
  0.3120000     -7.5986689E-37
  0.3125000     -9.2128554E-37
  0.3130000     -1.0716159E-36
  0.3135000     -1.1981340E-36
  0.3140000     -1.2884143E-36
  0.3145000     -1.3309717E-36
  0.3150000     -1.3175474E-36
  0.3155000     -1.2430244E-36
  0.3160000     -1.1053232E-36
  0.3165000     -9.0598712E-37
  0.3170000     -6.4882491E-37
  0.3175000     -3.3902387E-37
  0.3180000      1.7660473E-38
  0.3185000      4.1547885E-37
  0.3190000      8.4856061E-37
  0.3195000      1.3112212E-36
  0.3200000      1.7964424E-36
  0.3205000      2.2950207E-36
  0.3210000      2.7945717E-36
  0.3215000      3.2787435E-36
  0.3220000      3.7270898E-36
  0.3225000      4.1152228E-36
  0.3230000      4.4168601E-36
  0.3235000      4.6040126E-36
  0.3240000      4.6499307E-36
  0.3245000      4.5307878E-36
  0.3250000      4.2275301E-36
  0.3255000      3.7273589E-36
  0.3260000      3.0247133E-36
  0.3265000      2.1215270E-36
  0.3270000      1.0271437E-36
  0.3275000     -2.4226823E-37
  0.3280000     -1.6642102E-36
  0.3285000     -3.2105567E-36
  0.3290000     -4.8478825E-36
  0.3295000     -6.5377238E-36
  0.3300000     -8.2361244E-36
  0.3305000     -9.8934968E-36
  0.3310000     -1.1454500E-35
  0.3315000     -1.2858196E-35
  0.3320000     -1.4038743E-35
  0.3325000     -1.4926811E-35
  0.3330000     -1.5451784E-35
  0.3335000     -1.5544641E-35
  0.3340000     -1.5141453E-35
  0.3345000     -1.4187136E-35
  0.3350000     -1.2639246E-35
  0.3355000     -1.0471374E-35
  0.3360000     -7.6760879E-36
  0.3365000     -4.2670240E-36
  0.3370000     -2.8017723E-37
  0.3375000      4.2256224E-36
  0.3380000      9.1689033E-36
  0.3385000      1.4446226E-35
  0.3390000      1.9933313E-35
  0.3395000      2.5486356E-35
  0.3400000      3.0943732E-35
  0.3405000      3.6127981E-35
  0.3410000      4.0848366E-35
  0.3415000      4.4904200E-35
  0.3420000      4.8089121E-35
  0.3425000      5.0196548E-35
  0.3430000      5.1026316E-35
  0.3435000      5.0392272E-35
  0.3440000      4.8130768E-35
  0.3445000      4.4109435E-35
  0.3450000      3.8235878E-35
  0.3455000      3.0465708E-35
  0.3460000      2.0809332E-35
  0.3465000      9.3374695E-36
  0.3470000     -3.8153164E-36
  0.3475000     -1.8448771E-35
  0.3480000     -3.4297011E-35
  0.3485000     -5.1030288E-35
  0.3490000     -6.8258386E-35
  0.3495000     -8.5535558E-35
  0.3500000     -1.0236696E-34
  0.3505000     -1.1821662E-34
  0.3510000     -1.3251716E-34
  0.3515000     -1.4468131E-34
  0.3520000     -1.5411536E-34
  0.3525000     -1.6023456E-34
  0.3530000     -1.6248046E-34
  0.3535000     -1.6033962E-34
  0.3540000     -1.5336359E-34
  0.3545000     -1.4118923E-34
  0.3550000     -1.2355875E-34
  0.3555000     -1.0033868E-34
  0.3560000     -7.1536947E-35
  0.3565000     -3.7317569E-35
  0.3570000      1.9878432E-36
  0.3575000      4.5872132E-35
  0.3580000      9.3648398E-35
  0.3585000      1.4444995E-34
  0.3590000      1.9723443E-34
  0.3595000      2.5079236E-34
  0.3600000      3.0376032E-34
  0.3605000      3.5463879E-34
  0.3610000      4.0181506E-34
  0.3615000      4.4359148E-34
  0.3620000      4.7821861E-34
  0.3625000      5.0393401E-34
  0.3630000      5.1900606E-34
  0.3635000      5.2178206E-34
  0.3640000      5.1074040E-34
  0.3645000      4.8454607E-34
  0.3650000      4.4210687E-34
  0.3655000      3.8263106E-34
  0.3660000      3.0568278E-34
  0.3665000      2.1123546E-34
  0.3670000      9.9720320E-35
  0.3675000     -2.7930839E-35
  0.3680000     -1.7025099E-34
  0.3685000     -3.2521169E-34
  0.3690000     -4.9020842E-34
  0.3695000     -6.6205789E-34
  0.3700000     -8.3700937E-34
  0.3705000     -1.0107718E-33
  0.3710000     -1.1785577E-33
  0.3715000     -1.3351460E-33
  0.3720000     -1.4749640E-33
  0.3725000     -1.5921908E-33
  0.3730000     -1.6808794E-33
  0.3735000     -1.7351029E-33
  0.3740000     -1.7491158E-33
  0.3745000     -1.7175357E-33
  0.3750000     -1.6355388E-33
  0.3755000     -1.4990652E-33
  0.3760000     -1.3050322E-33
  0.3765000     -1.0515478E-33
  0.3770000     -7.3811903E-34
  0.3775000     -3.6584883E-34
  0.3780000      6.2386573E-35
  0.3785000      5.4178682E-34
  0.3790000      1.0655118E-33
  0.3795000      1.6246087E-33
  0.3800000      2.2079909E-33
  0.3805000      2.8024757E-33
  0.3810000      3.3928881E-33
  0.3815000      3.9622384E-33
  0.3820000      4.4919775E-33
  0.3825000      4.9623332E-33
  0.3830000      5.3527281E-33
  0.3835000      5.6422785E-33
  0.3840000      5.8103716E-33
  0.3845000      5.8373062E-33
  0.3850000      5.7049962E-33
  0.3855000      5.3977132E-33
  0.3860000      4.9028547E-33
  0.3865000      4.2117176E-33
  0.3870000      3.3202470E-33
  0.3875000      2.2297466E-33
  0.3880000      9.4750162E-34
  0.3885000     -5.1269195E-34
  0.3890000     -2.1301394E-33
  0.3895000     -3.8770232E-33
  0.3900000     -5.7183697E-33
  0.3905000     -7.6122384E-33
  0.3910000     -9.5101438E-33
  0.3915000     -1.1357743E-32
  0.3920000     -1.3095786E-32
  0.3925000     -1.4661330E-32
  0.3930000     -1.5989228E-32
  0.3935000     -1.7013860E-32
  0.3940000     -1.7671082E-32
  0.3945000     -1.7900368E-32
  0.3950000     -1.7647081E-32
  0.3955000     -1.6864847E-32
  0.3960000     -1.5517899E-32
  0.3965000     -1.3583413E-32
  0.3970000     -1.1053654E-32
  0.3975000     -7.9379179E-33
  0.3980000     -4.2641340E-33
  0.3985000     -8.0075100E-35
  0.3990000      4.5459419E-33
  0.3995000      9.5249271E-33
  0.4000000      1.4747730E-32
  0.4005000      2.0086251E-32
  0.4010000      2.5395386E-32
  0.4015000      3.0515725E-32
  0.4020000      3.5276997E-32
  0.4025000      3.9502244E-32
  0.4030000      4.3012623E-32
  0.4035000      4.5632796E-32
  0.4040000      4.7196774E-32
  0.4045000      4.7554086E-32
  0.4050000      4.6576025E-32
  0.4055000      4.4161924E-32
  0.4060000      4.0245118E-32
  0.4065000      3.4798430E-32
  0.4070000      2.7838974E-32
  0.4075000      1.9431952E-32
  0.4080000      9.6933417E-33
  0.4085000     -1.2088330E-33
  0.4090000     -1.3054752E-32
  0.4095000     -2.5574760E-32
  0.4100000     -3.8453130E-32
  0.4105000     -5.1333668E-32
  0.4110000     -6.3827186E-32
  0.4115000     -7.5520757E-32
  0.4120000     -8.5988581E-32
  0.4125000     -9.4804389E-32
  0.4130000     -1.0155497E-31
  0.4135000     -1.0585451E-31
  0.4140000     -1.0735950E-31
  0.4145000     -1.0578356E-31
  0.4150000     -1.0091183E-31
  0.4155000     -9.2614308E-32
  0.4160000     -8.0857778E-32
  0.4165000     -6.5715489E-32
  0.4170000     -4.7374424E-32
  0.4175000     -2.6139421E-32
  0.4180000     -2.4338846E-33
  0.4185000      2.3203333E-32
  0.4190000      5.0125083E-32
  0.4195000      7.7587253E-32
  0.4200000      1.0476423E-31
  0.4205000      1.3076845E-31
  0.4210000      1.5467365E-31
  0.4215000      1.7554144E-31
  0.4220000      1.9245061E-31
  0.4225000      2.0452852E-31
  0.4230000      2.1098342E-31
  0.4235000      2.1113733E-31
  0.4240000      2.0445782E-31
  0.4245000      1.9058789E-31
  0.4250000      1.6937273E-31
  0.4255000      1.4088239E-31
  0.4260000      1.0542923E-31
  0.4265000      6.3578663E-32
  0.4270000      1.6153176E-32
  0.4275000     -3.5771889E-32
  0.4280000     -9.0880683E-32
  0.4285000     -1.4763807E-31
  0.4290000     -2.0431959E-31
  0.4295000     -2.5904980E-31
  0.4300000     -3.0984877E-31
  0.4305000     -3.5468546E-31
  0.4310000     -3.9153742E-31
  0.4315000     -4.1845507E-31
  0.4320000     -4.3362872E-31
  0.4325000     -4.3545723E-31
  0.4330000     -4.2261556E-31
  0.4335000     -3.9411956E-31
  0.4340000     -3.4938556E-31
  0.4345000     -2.8828258E-31
  0.4350000     -2.1117542E-31
  0.4355000     -1.1895629E-31
  0.4360000     -1.3063467E-32
  0.4365000      1.0451487E-31
  0.4370000      2.3125211E-31
  0.4375000      3.6411135E-31
  0.4380000      4.9959013E-31
  0.4385000      6.3378165E-31
  0.4390000      7.6245225E-31
  0.4395000      8.8113345E-31
  0.4400000      9.8522733E-31
  0.4405000      1.0701235E-30
  0.4410000      1.1313244E-30
  0.4415000      1.1645776E-30
  0.4420000      1.1660098E-30
  0.4425000      1.1322624E-30
  0.4430000      1.0606218E-30
  0.4435000      9.4914473E-31
  0.4440000      7.9677104E-31
  0.4445000      6.0342460E-31
  0.4450000      3.7009692E-31
  0.4455000      9.8911631E-32
  0.4460000     -2.0683336E-31
  0.4465000     -5.4264698E-31
  0.4470000     -9.0285094E-31
  0.4475000     -1.2806132E-30
  0.4480000     -1.6680079E-30
  0.4485000     -2.0561025E-30
  0.4490000     -2.4350721E-30
  0.4495000     -2.7943404E-30
  0.4500000     -3.1227457E-30
  0.4505000     -3.4087301E-30
  0.4510000     -3.6405530E-30
  0.4515000     -3.8065230E-30
  0.4520000     -3.8952482E-30
  0.4525000     -3.8959039E-30
  0.4530000     -3.7985101E-30
  0.4535000     -3.5942254E-30
  0.4540000     -3.2756382E-30
  0.4545000     -2.8370740E-30
  0.4550000     -2.2748915E-30
  0.4555000     -1.5877792E-30
  0.4560000     -7.7704413E-31
  0.4565000      1.5311798E-31
  0.4570000      1.1953721E-30
  0.4575000      2.3390227E-30
  0.4580000      3.5698270E-30
  0.4585000      4.8698568E-30
  0.4590000      6.2174127E-30
  0.4595000      7.5870069E-30
  0.4600000      8.9494233E-30
  0.4605000      1.0271864E-29
  0.4610000      1.1518202E-29
  0.4615000      1.2649338E-29
  0.4620000      1.3623688E-29
  0.4625000      1.4397799E-29
  0.4630000      1.4927101E-29
  0.4635000      1.5166810E-29
  0.4640000      1.5072961E-29
  0.4645000      1.4603609E-29
  0.4650000      1.3720129E-29
  0.4655000      1.2388662E-29
  0.4660000      1.0581641E-29
  0.4665000      8.2793998E-30
  0.4670000      5.4718216E-30
  0.4675000      2.1599714E-30
  0.4680000     -1.6423038E-30
  0.4685000     -5.9068937E-30
  0.4690000     -1.0590100E-29
  0.4695000     -1.5631543E-29
  0.4700000     -2.0953371E-29
  0.4705000     -2.6459828E-29
  0.4710000     -3.2037258E-29
  0.4715000     -3.7554617E-29
  0.4720000     -4.2864544E-29
  0.4725000     -4.7805030E-29
  0.4730000     -5.2201771E-29
  0.4735000     -5.5871192E-29
  0.4740000     -5.8624098E-29
  0.4745000     -6.0270112E-29
  0.4750000     -6.0622677E-29
  0.4755000     -5.9504639E-29
  0.4760000     -5.6754369E-29
  0.4765000     -5.2232249E-29
  0.4770000     -4.5827392E-29
  0.4775000     -3.7464468E-29
  0.4780000     -2.7110383E-29
  0.4785000     -1.4780682E-29
  0.4790000     -5.4533910E-31
  0.4795000      1.5466198E-29
  0.4800000      3.3061043E-29
  0.4805000      5.1980187E-29
  0.4810000      7.1897342E-29
  0.4815000      9.2419600E-29
  0.4820000      1.1308998E-28
  0.4825000      1.3339217E-28
  0.4830000      1.5275749E-28