  0.0000000E+00  0.0000000E+00
  5.0000002E-04  0.0000000E+00
  1.0000000E-03  0.0000000E+00
  1.5000000E-03  0.0000000E+00
  2.0000001E-03  0.0000000E+00
  2.4999999E-03  0.0000000E+00
  3.0000000E-03  0.0000000E+00
  3.5000001E-03  0.0000000E+00
  4.0000002E-03  0.0000000E+00
  4.4999998E-03  0.0000000E+00
  4.9999999E-03  0.0000000E+00
  5.5000000E-03  0.0000000E+00
  6.0000001E-03  0.0000000E+00
  6.5000001E-03  0.0000000E+00
  7.0000002E-03  0.0000000E+00
  7.4999998E-03  0.0000000E+00
  8.0000004E-03  0.0000000E+00
  8.5000005E-03  0.0000000E+00
  8.9999996E-03  0.0000000E+00
  9.4999997E-03  0.0000000E+00
  9.9999998E-03  0.0000000E+00
  1.0500000E-02  0.0000000E+00
  1.1000000E-02  0.0000000E+00
  1.1500000E-02  0.0000000E+00
  1.2000000E-02  0.0000000E+00
  1.2500000E-02  0.0000000E+00
  1.3000000E-02  0.0000000E+00
  1.3500000E-02  0.0000000E+00
  1.4000000E-02  0.0000000E+00
  1.4500000E-02  0.0000000E+00
  1.5000000E-02  0.0000000E+00
  1.5500000E-02  0.0000000E+00
  1.6000001E-02  0.0000000E+00
  1.6500000E-02  0.0000000E+00
  1.7000001E-02  0.0000000E+00
  1.7500000E-02  0.0000000E+00
  1.7999999E-02  0.0000000E+00
  1.8500000E-02  0.0000000E+00
  1.8999999E-02  0.0000000E+00
  1.9500000E-02  0.0000000E+00
  2.0000000E-02  0.0000000E+00
  2.0500001E-02  0.0000000E+00
  2.1000000E-02  0.0000000E+00
  2.1500001E-02  0.0000000E+00
  2.2000000E-02  0.0000000E+00
  2.2500001E-02  0.0000000E+00
  2.3000000E-02  0.0000000E+00
  2.3499999E-02  0.0000000E+00
  2.4000000E-02  0.0000000E+00
  2.4499999E-02  0.0000000E+00
  2.5000000E-02  0.0000000E+00
  2.5500000E-02  0.0000000E+00
  2.6000001E-02  0.0000000E+00
  2.6500000E-02  0.0000000E+00
  2.7000001E-02  0.0000000E+00
  2.7500000E-02  0.0000000E+00
  2.8000001E-02  0.0000000E+00
  2.8500000E-02  0.0000000E+00
  2.8999999E-02  0.0000000E+00
  2.9500000E-02  0.0000000E+00
  2.9999999E-02  0.0000000E+00
  3.0500000E-02  0.0000000E+00
  3.0999999E-02  0.0000000E+00
  3.1500001E-02  0.0000000E+00
  3.2000002E-02  0.0000000E+00
  3.2499999E-02  0.0000000E+00
  3.3000000E-02  0.0000000E+00
  3.3500001E-02  0.0000000E+00
  3.4000002E-02  0.0000000E+00
  3.4499999E-02  0.0000000E+00
  3.5000000E-02  0.0000000E+00
  3.5500001E-02  0.0000000E+00
  3.5999998E-02  0.0000000E+00
  3.6499999E-02  0.0000000E+00
  3.7000000E-02  0.0000000E+00
  3.7500001E-02  0.0000000E+00
  3.7999999E-02  0.0000000E+00
  3.8500000E-02  0.0000000E+00
  3.9000001E-02  0.0000000E+00
  3.9500002E-02  0.0000000E+00
  3.9999999E-02  0.0000000E+00
  4.0500000E-02  0.0000000E+00
  4.1000001E-02  0.0000000E+00
  4.1499998E-02  0.0000000E+00
  4.1999999E-02  0.0000000E+00
  4.2500000E-02  0.0000000E+00
  4.3000001E-02  0.0000000E+00
  4.3499999E-02  0.0000000E+00
  4.4000000E-02  0.0000000E+00
  4.4500001E-02  0.0000000E+00
  4.5000002E-02  0.0000000E+00
  4.5499999E-02  0.0000000E+00
  4.6000000E-02  0.0000000E+00
  4.6500001E-02  0.0000000E+00
  4.6999998E-02  0.0000000E+00
  4.7499999E-02  0.0000000E+00
  4.8000000E-02  0.0000000E+00
  4.8500001E-02  0.0000000E+00
  4.8999999E-02  0.0000000E+00
  4.9500000E-02  0.0000000E+00
  5.0000001E-02  0.0000000E+00
  5.0500002E-02  0.0000000E+00
  5.0999999E-02  0.0000000E+00
  5.1500000E-02  0.0000000E+00
  5.2000001E-02  0.0000000E+00
  5.2499998E-02  0.0000000E+00
  5.2999999E-02  0.0000000E+00
  5.3500000E-02  0.0000000E+00
  5.4000001E-02  0.0000000E+00
  5.4499999E-02  0.0000000E+00
  5.5000000E-02  0.0000000E+00
  5.5500001E-02  0.0000000E+00
  5.6000002E-02  0.0000000E+00
  5.6499999E-02  0.0000000E+00
  5.7000000E-02  0.0000000E+00
  5.7500001E-02  0.0000000E+00
  5.7999998E-02  0.0000000E+00
  5.8499999E-02  0.0000000E+00
  5.9000000E-02  0.0000000E+00
  5.9500001E-02  0.0000000E+00
  5.9999999E-02  0.0000000E+00
  6.0500000E-02  0.0000000E+00
  6.1000001E-02  0.0000000E+00
  6.1500002E-02  0.0000000E+00
  6.1999999E-02  0.0000000E+00
  6.2500000E-02  0.0000000E+00
  6.3000001E-02  0.0000000E+00
  6.3500002E-02  0.0000000E+00
  6.4000003E-02  0.0000000E+00
  6.4499997E-02  0.0000000E+00
  6.4999998E-02  0.0000000E+00
  6.5499999E-02  0.0000000E+00
  6.6000000E-02  0.0000000E+00
  6.6500001E-02  0.0000000E+00
  6.7000002E-02  0.0000000E+00
  6.7500003E-02  0.0000000E+00
  6.8000004E-02  0.0000000E+00
  6.8499997E-02  0.0000000E+00
  6.8999998E-02  0.0000000E+00
  6.9499999E-02  0.0000000E+00
  7.0000000E-02  0.0000000E+00
  7.0500001E-02  0.0000000E+00
  7.1000002E-02  0.0000000E+00
  7.1500003E-02  0.0000000E+00
  7.1999997E-02  0.0000000E+00
  7.2499998E-02  0.0000000E+00
  7.2999999E-02  0.0000000E+00
  7.3500000E-02  0.0000000E+00
  7.4000001E-02  0.0000000E+00
  7.4500002E-02  0.0000000E+00
  7.5000003E-02  0.0000000E+00
  7.5499997E-02  0.0000000E+00
  7.5999998E-02  0.0000000E+00
  7.6499999E-02  0.0000000E+00
  7.7000000E-02  0.0000000E+00
  7.7500001E-02  0.0000000E+00
  7.8000002E-02  0.0000000E+00
  7.8500003E-02  0.0000000E+00
  7.9000004E-02  0.0000000E+00
  7.9499997E-02  0.0000000E+00
  7.9999998E-02  0.0000000E+00
  8.0499999E-02  0.0000000E+00
  8.1000000E-02  0.0000000E+00
  8.1500001E-02  0.0000000E+00
  8.2000002E-02  0.0000000E+00
  8.2500003E-02  0.0000000E+00
  8.2999997E-02  0.0000000E+00
  8.3499998E-02  0.0000000E+00
  8.3999999E-02  0.0000000E+00
  8.4500000E-02  0.0000000E+00
  8.5000001E-02  0.0000000E+00
  8.5500002E-02  0.0000000E+00
  8.6000003E-02  0.0000000E+00
  8.6499996E-02  0.0000000E+00
  8.6999997E-02  0.0000000E+00
  8.7499999E-02  0.0000000E+00
  8.8000000E-02  0.0000000E+00
  8.8500001E-02  0.0000000E+00
  8.9000002E-02  0.0000000E+00
  8.9500003E-02  0.0000000E+00
  9.0000004E-02  0.0000000E+00
  9.0499997E-02  0.0000000E+00
  9.0999998E-02  0.0000000E+00
  9.1499999E-02  0.0000000E+00
  9.2000000E-02  0.0000000E+00
  9.2500001E-02  0.0000000E+00
  9.3000002E-02  0.0000000E+00
  9.3500003E-02  0.0000000E+00
  9.3999997E-02  0.0000000E+00
  9.4499998E-02  0.0000000E+00
  9.4999999E-02  0.0000000E+00
  9.5500000E-02  0.0000000E+00
  9.6000001E-02  0.0000000E+00
  9.6500002E-02  0.0000000E+00
  9.7000003E-02  0.0000000E+00
  9.7499996E-02  0.0000000E+00
  9.7999997E-02  0.0000000E+00
  9.8499998E-02  0.0000000E+00
  9.8999999E-02  0.0000000E+00
  9.9500000E-02  0.0000000E+00
  0.1000000      0.0000000E+00
  0.1005000      0.0000000E+00
  0.1010000      0.0000000E+00
  0.1015000      0.0000000E+00
  0.1020000      0.0000000E+00
  0.1025000     -2.9907819E-37
  0.1030000     -4.3949603E-37
  0.1035000     -5.4366699E-37
  0.1040000     -4.2856119E-37
  0.1045000      0.0000000E+00
  0.1050000      2.5931463E-37
  0.1055000     -4.4180690E-37
  0.1060000     -2.5090781E-36
  0.1065000     -2.0750038E-37
  0.1070000      2.6478478E-36
  0.1075000      9.4576563E-36
  0.1080000      1.2013312E-35
  0.1085000      1.1150685E-35
  0.1090000      1.1446221E-35
  0.1095000      8.2976563E-36
  0.1100000     -2.4640334E-36
  0.1105000     -7.4822511E-36
  0.1110000     -1.6360508E-35
  0.1115000     -2.2753989E-35
  0.1120000     -4.0141232E-35
  0.1125000     -2.4897679E-35
  0.1130000     -1.8258742E-35
  0.1135000     -4.2170360E-35
  0.1140000     -2.1939073E-36
  0.1145000     -3.1999617E-35
  0.1150000     -3.3610819E-35
  0.1155000     -5.3640086E-35
  0.1160000      4.3626966E-35
  0.1165000      1.6794636E-34
  0.1170000      7.2765936E-35
  0.1175000     -4.4766978E-35
  0.1180000      8.4494758E-35
  0.1185000      1.5585982E-34
  0.1190000      1.5601094E-34
  0.1195000      8.7414547E-35
  0.1200000      3.2793530E-36
  0.1205000     -1.8262266E-34
  0.1210000     -5.7939235E-34
  0.1215000     -5.9645534E-34
  0.1220000     -4.6931878E-34
  0.1225000     -5.1046219E-34
  0.1230000     -4.3734915E-34
  0.1235000      2.0863188E-35
  0.1240000      2.0653658E-34
  0.1245000      6.6115551E-34
  0.1250000      1.2345358E-33
  0.1255000      2.3442559E-33
  0.1260000      2.1497318E-33
  0.1265000      2.5847431E-33
  0.1270000      2.5880683E-33
  0.1275000      2.5938254E-33
  0.1280000      2.1395900E-33
  0.1285000      1.7229845E-33
  0.1290000      1.1056371E-33
  0.1295000     -7.4389291E-34
  0.1300000     -1.8397387E-33
  0.1305000     -1.2618285E-33
  0.1310000     -2.2656676E-33
  0.1315000     -2.9264408E-33
  0.1320000     -2.9146680E-33
  0.1325000     -3.6533097E-33
  0.1330000     -3.9301309E-33
  0.1335000     -3.5021533E-33
  0.1340000     -3.0151619E-33
  0.1345000     -2.6465989E-33
  0.1350000     -1.7223540E-33
  0.1355000     -9.2583294E-34
  0.1360000      3.6907991E-35
  0.1365000      1.3169336E-33
  0.1370000      2.2791221E-33
  0.1375000      2.6706220E-33
  0.1380000      3.9536022E-33
  0.1385000      4.2584329E-33
  0.1390000      4.9226919E-33
  0.1395000      6.4695190E-33
  0.1400000      8.0391309E-33
  0.1405000      9.9331609E-33
  0.1410000      1.2212076E-32
  0.1415000      1.5128348E-32
  0.1420000      1.7337244E-32
  0.1425000      1.6288902E-32
  0.1430000      1.3296056E-32
  0.1435000      8.6344086E-33
  0.1440000      2.1450456E-33
  0.1445000     -6.0907814E-33
  0.1450000     -1.5649516E-32
  0.1455000     -2.6535216E-32
  0.1460000     -3.8218187E-32
  0.1465000     -4.9901328E-32
  0.1470000     -6.4394750E-32
  0.1475000     -7.9070591E-32
  0.1480000     -9.1862956E-32
  0.1485000     -1.0018732E-31
  0.1490000     -1.0410338E-31
  0.1495000     -1.0188669E-31
  0.1500000     -9.2657325E-32
  0.1505000     -7.5343663E-32
  0.1510000     -4.9403324E-32
  0.1515000     -1.5031979E-32
  0.1520000      2.7472611E-32
  0.1525000      7.7156681E-32
  0.1530000      1.3260681E-31
  0.1535000      1.9177418E-31
  0.1540000      2.5230178E-31
  0.1545000      3.1112815E-31
  0.1550000      3.6510253E-31
  0.1555000      4.1066408E-31
  0.1560000      4.4419124E-31
  0.1565000      4.6211673E-31
  0.1570000      4.6099583E-31
  0.1575000      4.3774554E-31
  0.1580000      3.8979397E-31
  0.1585000      3.1518253E-31
  0.1590000      2.1275467E-31
  0.1595000      8.2320504E-32
  0.1600000     -7.5270982E-32
  0.1605000     -2.5793927E-31
  0.1610000     -4.6228525E-31
  0.1615000     -6.8352359E-31
  0.1620000     -9.1530855E-31
  0.1625000     -1.1497427E-30
  0.1630000     -1.3774189E-30
  0.1635000     -1.5872950E-30
  0.1640000     -1.7670447E-30
  0.1645000     -1.9031175E-30
  0.1650000     -1.9811353E-30
  0.1655000     -1.9864361E-30
  0.1660000     -1.9047317E-30
  0.1665000     -1.7228352E-30
  0.1670000     -1.4294630E-30
  0.1675000     -1.0163939E-30
  0.1680000     -4.7953958E-31
  0.1685000      1.8002690E-31
  0.1690000      9.5506236E-31
  0.1695000      1.8313186E-30
  0.1700000      2.7869275E-30
  0.1705000      3.7920263E-30
  0.1710000      4.8089700E-30
  0.1715000      5.7927673E-30
  0.1720000      6.6921341E-30
  0.1725000      7.4511521E-30
  0.1730000      8.0111810E-30
  0.1735000      8.3132811E-30
  0.1740000      8.3010981E-30
  0.1745000      7.9239190E-30
  0.1750000      7.1398564E-30
  0.1755000      5.9188458E-30
  0.1760000      4.2456810E-30
  0.1765000      2.1225924E-30
  0.1770000     -4.2879575E-31
  0.1775000     -3.3658323E-30
  0.1780000     -6.6241999E-30
  0.1785000     -1.0117772E-29
  0.1790000     -1.3739449E-29
  0.1795000     -1.7362917E-29
  0.1800000     -2.0844550E-29
  0.1805000     -2.4027047E-29
  0.1810000     -2.6743054E-29
  0.1815000     -2.8819622E-29
  0.1820000     -3.0083399E-29
  0.1825000     -3.0366556E-29
  0.1830000     -2.9513080E-29
  0.1835000     -2.7385574E-29
  0.1840000     -2.3873151E-29
  0.1845000     -1.8898981E-29
  0.1850000     -1.2428668E-29
  0.1855000     -4.4783957E-30
  0.1860000      4.8767360E-30
  0.1865000      1.5495783E-29
  0.1870000      2.7165597E-29
  0.1875000      3.9596614E-29
  0.1880000      5.2421412E-29
  0.1885000      6.5196027E-29
  0.1890000      7.7405315E-29
  0.1895000      8.8473159E-29
  0.1900000      9.7777748E-29
  0.1905000      1.0467133E-28
  0.1910000      1.0850451E-28
  0.1915000      1.0865716E-28
  0.1920000      1.0457006E-28
  0.1925000      9.5780408E-29
  0.1930000      8.1957991E-29
  0.1935000      6.2938710E-29
  0.1940000      3.8756791E-29
  0.1945000      9.6679562E-30
  0.1950000     -2.3831305E-29
  0.1955000     -6.0997271E-29
  0.1960000     -1.0084148E-28
  0.1965000     -1.4214657E-28
  0.1970000     -1.8349459E-28
  0.1975000     -2.2330659E-28
  0.1980000     -2.5989134E-28
  0.1985000     -2.9150613E-28
  0.1990000     -3.1642114E-28
  0.1995000     -3.3298939E-28
  0.2000000     -3.3971567E-28
  0.2005000     -3.3532323E-28
  0.2010000     -3.1881401E-28
  0.2015000     -2.8952281E-28
  0.2020000     -2.4715924E-28
  0.2025000     -1.9183860E-28
  0.2030000     -1.2410093E-28
  0.2035000     -4.4917552E-29
  0.2040000      4.4316807E-29
  0.2045000      1.4179385E-28
  0.2050000      2.4532332E-28
  0.2055000      3.5236441E-28
  0.2060000      4.6007009E-28
  0.2065000      5.6533261E-28
  0.2070000      6.6484089E-28
  0.2075000      7.5514586E-28
  0.2080000      8.3273224E-28
  0.2085000      8.9409901E-28
  0.2090000      9.3585385E-28
  0.2095000      9.5481155E-28
  0.2100000      9.4810912E-28
  0.2105000      9.1332586E-28
  0.2110000      8.4860527E-28
  0.2115000      7.5278284E-28
  0.2120000      6.2550160E-28
  0.2125000      4.6731149E-28
  0.2130000      2.7975522E-28
  0.2135000      6.5407458E-29
  0.2140000     -1.7211936E-28
  0.2145000     -4.2821526E-28
  0.2150000     -6.9736118E-28
  0.2155000     -9.7329171E-28
  0.2160000     -1.2491689E-27
  0.2165000     -1.5178285E-27
  0.2170000     -1.7720387E-27
  0.2175000     -2.0047760E-27
  0.2180000     -2.2094890E-27
  0.2185000     -2.3803306E-27
  0.2190000     -2.5123519E-27
  0.2195000     -2.6016126E-27
  0.2200000     -2.6451927E-27
  0.2205000     -2.6411743E-27
  0.2210000     -2.5884279E-27
  0.2215000     -2.4864098E-27
  0.2220000     -2.3348035E-27
  0.2225000     -2.1332060E-27
  0.2230000     -1.8807293E-27
  0.2235000     -1.5756871E-27
  0.2240000     -1.2153285E-27
  0.2245000     -7.9571958E-28
  0.2250000     -3.1171181E-28
  0.2255000      2.4273940E-28
  0.2260000      8.7423709E-28
  0.2265000      1.5892477E-27
  0.2270000      2.3933191E-27
  0.2275000      3.2899594E-27
  0.2280000      4.2795754E-27
  0.2285000      5.3582714E-27
  0.2290000      6.5166860E-27
  0.2295000      7.7389466E-27
  0.2300000      9.0017480E-27
  0.2305000      1.0273856E-26
  0.2310000      1.1515812E-26
  0.2315000      1.2680129E-26
  0.2320000      1.3711962E-26
  0.2325000      1.4550076E-26
  0.2330000      1.5128432E-26
  0.2335000      1.5378007E-26
  0.2340000      1.5229169E-26
  0.2345000      1.4613949E-26
  0.2350000      1.3468789E-26
  0.2355000      1.1737357E-26
  0.2360000      9.3729595E-27
  0.2365000      6.3413269E-27
  0.2370000      2.6229226E-27
  0.2375000     -1.7849417E-27
  0.2380000     -6.8661136E-27
  0.2385000     -1.2584157E-26
  0.2390000     -1.8880486E-26
  0.2395000     -2.5673685E-26
  0.2400000     -3.2858060E-26
  0.2405000     -4.0302975E-26
  0.2410000     -4.7852192E-26
  0.2415000     -5.5322926E-26
  0.2420000     -6.2506552E-26
  0.2425000     -6.9167793E-26
  0.2430000     -7.5046230E-26
  0.2435000     -7.9857499E-26
  0.2440000     -8.3296858E-26
  0.2445000     -8.5042447E-26
  0.2450000     -8.4760836E-26
  0.2455000     -8.2116081E-26
  0.2460000     -7.6777052E-26
  0.2465000     -6.8431637E-26
  0.2470000     -5.6798330E-26
  0.2475000     -4.1643474E-26
  0.2480000     -2.2798177E-26
  0.2485000     -1.7777017E-28
  0.2490000      2.6199685E-26
  0.2495000      5.6194396E-26
  0.2500000      8.9525260E-26
  0.2505000      1.2575534E-25
  0.2510000      1.6427845E-25
  0.2515000      2.0431072E-25
  0.2520000      2.4488636E-25
  0.2525000      2.8486199E-25
  0.2530000      3.2292586E-25
  0.2535000      3.5761666E-25
  0.2540000      3.8734880E-25
  0.2545000      4.1044043E-25
  0.2550000      4.2516783E-25
  0.2555000      4.2980184E-25
  0.2560000      4.2266807E-25
  0.2565000      4.0221515E-25
  0.2570000      3.6706571E-25
  0.2575000      3.1609706E-25
  0.2580000      2.4850361E-25
  0.2585000      1.6386306E-25
  0.2590000      6.2202712E-26
  0.2595000     -5.5944690E-26
  0.2600000     -1.8948661E-25
  0.2605000     -3.3673351E-25
  0.2610000     -4.9537344E-25
  0.2615000     -6.6244895E-25
  0.2620000     -8.3435915E-25
  0.2625000     -1.0068901E-24
  0.2630000     -1.1752383E-24
  0.2635000     -1.3340836E-24
  0.2640000     -1.4776597E-24
  0.2645000     -1.5998699E-24
  0.2650000     -1.6944070E-24
  0.2655000     -1.7548996E-24
  0.2660000     -1.7750984E-24
  0.2665000     -1.7490569E-24
  0.2670000     -1.6713478E-24
  0.2675000     -1.5372757E-24
  0.2680000     -1.3431307E-24
  0.2685000     -1.0863956E-24
  0.2690000     -7.6601027E-25
  0.2695000     -3.8256460E-25
  0.2700000      6.1477779E-26
  0.2705000      5.6161833E-25
  0.2710000      1.1111801E-24
  0.2715000      1.7012271E-24
  0.2720000      2.3205255E-24
  0.2725000      2.9556039E-24
  0.2730000      3.5908231E-24
  0.2735000      4.2086167E-24
  0.2740000      4.7897252E-24
  0.2745000      5.3135320E-24
  0.2750000      5.7585848E-24
  0.2755000      6.1030157E-24
  0.2760000      6.3251771E-24
  0.2765000      6.4043183E-24
  0.2770000      6.3212075E-24
  0.2775000      6.0589337E-24
  0.2780000      5.6035713E-24
  0.2785000      4.9449663E-24
  0.2790000      4.0774224E-24
  0.2795000      3.0003072E-24
  0.2800000      1.7186303E-24
  0.2805000      2.4354002E-25
  0.2810000     -1.4073130E-24
  0.2815000     -3.2097271E-24
  0.2820000     -5.1327822E-24
  0.2825000     -7.1389632E-24
  0.2830000     -9.1845687E-24
  0.2835000     -1.1220231E-23
  0.2840000     -1.3191602E-23
  0.2845000     -1.5040264E-23
  0.2850000     -1.6704898E-23
  0.2855000     -1.8122541E-23
  0.2860000     -1.9230103E-23
  0.2865000     -1.9965857E-23
  0.2870000     -2.0271392E-23
  0.2875000     -2.0093217E-23
  0.2880000     -1.9384685E-23
  0.2885000     -1.8107980E-23
  0.2890000     -1.6235900E-23
  0.2895000     -1.3753670E-23
  0.2900000     -1.0660501E-23
  0.2905000     -6.9712269E-24
  0.2910000     -2.7173769E-24
  0.2915000      2.0518558E-24
  0.2920000      7.2690180E-24
  0.2925000      1.2848129E-23
  0.2930000      1.8685295E-23
  0.2935000      2.4659033E-23
  0.2940000      3.0631917E-23
  0.2945000      3.6452436E-23
  0.2950000      4.1956943E-23
  0.2955000      4.6973502E-23
  0.2960000      5.1324726E-23
  0.2965000      5.4832131E-23
  0.2970000      5.7320659E-23
  0.2975000      5.8623466E-23
  0.2980000      5.8587450E-23
  0.2985000      5.7078321E-23
  0.2990000      5.3986176E-23
  0.2995000      4.9231354E-23
  0.3000000      4.2768741E-23
  0.3005000      3.4593365E-23
  0.3010000      2.4743948E-23
  0.3015000      1.3306897E-23
  0.3020000      4.1836676E-25
  0.3025000     -1.3733922E-23
  0.3030000     -2.8911219E-23
  0.3035000     -4.4824203E-23
  0.3040000     -6.1136114E-23
  0.3045000     -7.7467245E-23
  0.3050000     -9.3400904E-23
  0.3055000     -1.0849049E-22
  0.3060000     -1.2226872E-22
  0.3065000     -1.3425881E-22
  0.3070000     -1.4398485E-22
  0.3075000     -1.5098666E-22
  0.3080000     -1.5483166E-22
  0.3085000     -1.5512974E-22
  0.3090000     -1.5154731E-22
  0.3095000     -1.4382357E-22
  0.3100000     -1.3177934E-22
  0.3105000     -1.1533488E-22
  0.3110000     -9.4516423E-23
  0.3115000     -6.9467533E-23
  0.3120000     -4.0454747E-23
  0.3125000     -7.8725202E-24
  0.3130000      2.7757393E-23
  0.3135000      6.5787345E-23
  0.3140000      1.0545023E-22
  0.3145000      1.4586905E-22
  0.3150000      1.8607048E-22
  0.3155000      2.2500383E-22
  0.3160000      2.6155768E-22
  0.3165000      2.9458732E-22
  0.3170000      3.2294168E-22
  0.3175000      3.4548975E-22
  0.3180000      3.6115731E-22
  0.3185000      3.6895396E-22
  0.3190000      3.6801131E-22
  0.3195000      3.5761243E-22
  0.3200000      3.3722809E-22
  0.3205000      3.0654203E-22
  0.3210000      2.6548224E-22
  0.3215000      2.1424351E-22
  0.3220000      1.5330200E-22
  0.3225000      8.3433400E-23
  0.3230000      5.7156874E-24
  0.3235000     -7.8474311E-23
  0.3240000     -1.6746424E-22
  0.3245000     -2.5931421E-22
  0.3250000     -3.5183446E-22
  0.3255000     -4.4263225E-22
  0.3260000     -5.2914836E-22
  0.3265000     -6.0871819E-22
  0.3270000     -6.7863237E-22
  0.3275000     -7.3620498E-22
  0.3280000     -7.7885320E-22
  0.3285000     -8.0417369E-22
  0.3290000     -8.1003004E-22
  0.3295000     -7.9463249E-22
  0.3300000     -7.5662050E-22
  0.3305000     -6.9514014E-22
  0.3310000     -6.0991459E-22
  0.3315000     -5.0130341E-22
  0.3320000     -3.7034616E-22
  0.3325000     -2.1880336E-22
  0.3330000     -4.9163389E-23
  0.3335000      1.3536038E-22
  0.3340000      3.3085637E-22
  0.3345000      5.3276384E-22
  0.3350000      7.3594603E-22
  0.3355000      9.3478851E-22
  0.3360000      1.1233206E-21
  0.3365000      1.2953486E-21
  0.3370000      1.4446208E-21
  0.3375000      1.5650056E-21
  0.3380000      1.6506704E-21
  0.3385000      1.6962863E-21
  0.3390000      1.6972131E-21
  0.3395000      1.6497166E-21
  0.3400000      1.5511170E-21
  0.3405000      1.3999910E-21
  0.3410000      1.1962940E-21
  0.3415000      9.4149744E-22
  0.3420000      6.3865669E-22
  0.3425000      2.9246694E-22
  0.3430000     -9.0750117E-23
  0.3435000     -5.0307586E-22
  0.3440000     -9.3510315E-22
  0.3445000     -1.3760809E-21
  0.3450000     -1.8141115E-21
  0.3455000     -2.2363926E-21
  0.3460000     -2.6295163E-21
  0.3465000     -2.9797946E-21
  0.3470000     -3.2736232E-21
  0.3475000     -3.4978742E-21
  0.3480000     -3.6403104E-21
  0.3485000     -3.6899727E-21
  0.3490000     -3.6376261E-21
  0.3495000     -3.4761316E-21
  0.3500000     -3.2008067E-21
  0.3505000     -2.8097615E-21
  0.3510000     -2.3041611E-21
  0.3515000     -1.6884355E-21
  0.3520000     -9.7043462E-22
  0.3525000     -1.6144687E-22
  0.3530000      7.2380136E-22
  0.3535000      1.6673078E-21
  0.3540000      2.6480073E-21
  0.3545000      3.6420976E-21
  0.3550000      4.6234804E-21
  0.3555000      5.5642501E-21
  0.3560000      6.4353452E-21
  0.3565000      7.2071811E-21
  0.3570000      7.8504085E-21
  0.3575000      8.3367333E-21
  0.3580000      8.6396955E-21
  0.3585000      8.7355620E-21
  0.3590000      8.6040993E-21
  0.3595000      8.2294309E-21
  0.3600000      7.6007405E-21
  0.3605000      6.7129419E-21
  0.3610000      5.5673177E-21
  0.3615000      4.1718563E-21
  0.3620000      2.5417111E-21
  0.3625000      6.9919027E-22
  0.3630000     -1.3261230E-21
  0.3635000     -3.4976415E-21
  0.3640000     -5.7721507E-21
  0.3645000     -8.1004416E-21
  0.3650000     -1.0428049E-20
  0.3655000     -1.2696285E-20
  0.3660000     -1.4843323E-20
  0.3665000     -1.6805557E-20
  0.3670000     -1.8519094E-20
  0.3675000     -1.9921178E-20
  0.3680000     -2.0951929E-20
  0.3685000     -2.1556020E-20
  0.3690000     -2.1684230E-20
  0.3695000     -2.1295298E-20
  0.3700000     -2.0357125E-20
  0.3705000     -1.8848611E-20
  0.3710000     -1.6760505E-20
  0.3715000     -1.4096820E-20
  0.3720000     -1.0875292E-20
  0.3725000     -7.1282257E-21
  0.3730000     -2.9023025E-21
  0.3735000      1.7412269E-21
  0.3740000      6.7270528E-21
  0.3745000      1.1966874E-20
  0.3750000      1.7360146E-20
  0.3755000      2.2795997E-20
  0.3760000      2.8154827E-20
  0.3765000      3.3310563E-20
  0.3770000      3.8133262E-20
  0.3775000      4.2490963E-20
  0.3780000      4.6253365E-20
  0.3785000      4.9294239E-20
  0.3790000      5.1494837E-20
  0.3795000      5.2745844E-20
  0.3800000      5.2951951E-20
  0.3805000      5.2032527E-20
  0.3810000      4.9926531E-20
  0.3815000      4.6592987E-20
  0.3820000      4.2014213E-20
  0.3825000      3.6196467E-20
  0.3830000      2.9172508E-20
  0.3835000      2.1001565E-20
  0.3840000      1.1769394E-20
  0.3845000      1.5890297E-21
  0.3850000     -9.3999674E-21
  0.3855000     -2.1033364E-20
  0.3860000     -3.3123187E-20
  0.3865000     -4.5460234E-20
  0.3870000     -5.7816778E-20
  0.3875000     -6.9950012E-20
  0.3880000     -8.1605083E-20
  0.3885000     -9.2519370E-20
  0.3890000     -1.0242740E-19
  0.3895000     -1.1106497E-19
  0.3900000     -1.1817343E-19
  0.3905000     -1.2350666E-19
  0.3910000     -1.2683468E-19
  0.3915000     -1.2794934E-19
  0.3920000     -1.2666914E-19
  0.3925000     -1.2284526E-19
  0.3930000     -1.1636597E-19
  0.3935000     -1.0715999E-19
  0.3940000     -9.5201658E-20
  0.3945000     -8.0514291E-20
  0.3950000     -6.3174226E-20
  0.3955000     -4.3310582E-20
  0.3960000     -2.1108958E-20
  0.3965000      3.1892946E-21
  0.3970000      2.9287286E-20
  0.3975000      5.6832219E-20
  0.3980000      8.5421585E-20
  0.3985000      1.1460157E-19
  0.3990000      1.4387797E-19
  0.3995000      1.7271512E-19
  0.4000000      2.0054710E-19
  0.4005000      2.2678286E-19
  0.4010000      2.5082088E-19
  0.4015000      2.7205110E-19
  0.4020000      2.8986978E-19
  0.4025000      3.0369096E-19
  0.4030000      3.1295665E-19
  0.4035000      3.1715048E-19
  0.4040000      3.1580861E-19
  0.4045000      3.0853620E-19
  0.4050000      2.9501190E-19
  0.4055000      2.7500672E-19
  0.4060000      2.4839319E-19
  0.4065000      2.1515063E-19
  0.4070000      1.7538033E-19
  0.4075000      1.2930821E-19
  0.4080000      7.7292286E-20
  0.4085000      1.9830311E-20
  0.4090000     -4.2448818E-20
  0.4095000     -1.0877510E-19
  0.4100000     -1.7825203E-19
  0.4105000     -2.4984851E-19
  0.4110000     -3.2242311E-19
  0.4115000     -3.9472149E-19
  0.4120000     -4.6540454E-19
  0.4125000     -5.3305814E-19
  0.4130000     -5.9620790E-19
  0.4135000     -6.5335962E-19
  0.4140000     -7.0300312E-19
  0.4145000     -7.4365398E-19
  0.4150000     -7.7387596E-19
  0.4155000     -7.9231510E-19
  0.4160000     -7.9772688E-19
  0.4165000     -7.8901646E-19
  0.4170000     -7.6525611E-19
  0.4175000     -7.2573146E-19
  0.4180000     -6.6996542E-19
  0.4185000     -5.9772934E-19
  0.4190000     -5.0909524E-19
  0.4195000     -4.0443841E-19
  0.4200000     -2.8444779E-19
  0.4205000     -1.5016499E-19
  0.4210000     -2.9686878E-21
  0.4215000      1.5542943E-19
  0.4220000      3.2295680E-19
  0.4225000      4.9724810E-19
  0.4230000      6.7560711E-19
  0.4235000      8.5507774E-19
  0.4240000      1.0324455E-18
  0.4245000      1.2043101E-18
  0.4250000      1.3671185E-18
  0.4255000      1.5172282E-18
  0.4260000      1.6509309E-18
  0.4265000      1.7645884E-18
  0.4270000      1.8546541E-18
  0.4275000      1.9177515E-18
  0.4280000      1.9507508E-18
  0.4285000      1.9508747E-18
  0.4290000      1.9157377E-18
  0.4295000      1.8434268E-18
  0.4300000      1.7326050E-18
  0.4305000      1.5825024E-18
  0.4310000      1.3930566E-18
  0.4315000      1.1649090E-18
  0.4320000      8.9944187E-19
  0.4325000      5.9884051E-19
  0.4330000      2.6606326E-19
  0.4335000     -9.5119638E-20
  0.4340000     -4.8017726E-19
  0.4345000     -8.8381064E-19
  0.4350000     -1.3000018E-18
  0.4355000     -1.7221401E-18
  0.4360000     -2.1429952E-18
  0.4365000     -2.5548904E-18
  0.4370000     -2.9498121E-18
  0.4375000     -3.3194431E-18
  0.4380000     -3.6554220E-18
  0.4385000     -3.9493809E-18
  0.4390000     -4.1932072E-18
  0.4395000     -4.3790900E-18
  0.4400000     -4.4997414E-18
  0.4405000     -4.5485458E-18
  0.4410000     -4.5197831E-18
  0.4415000     -4.4087374E-18
  0.4420000     -4.2118287E-18
  0.4425000     -3.9267864E-18
  0.4430000     -3.5528615E-18
  0.4435000     -3.0907643E-18
  0.4440000     -2.5428905E-18
  0.4445000     -1.9132903E-18
  0.4450000     -1.2077850E-18
  0.4455000     -4.3395637E-19
  0.4460000      3.9891581E-19
  0.4465000      1.2798735E-18
  0.4470000      2.1963655E-18
  0.4475000      3.1343772E-18
  0.4480000      4.0786307E-18
  0.4485000      5.0126856E-18
  0.4490000      5.9192697E-18
  0.4495000      6.7804160E-18
  0.4500000      7.5779025E-18
  0.4505000      8.2934295E-18
  0.4510000      8.9089395E-18
  0.4515000      9.4071082E-18
  0.4520000      9.7715896E-18
  0.4525000      9.9873671E-18
  0.4530000      1.0041112E-17
  0.4535000      9.9216733E-18
  0.4540000      9.6201858E-18
  0.4545000      9.1305329E-18
  0.4550000      8.4495780E-18
  0.4555000      7.5774343E-18
  0.4560000      6.5175777E-18
  0.4565000      5.2772096E-18
  0.4570000      3.8670578E-18
  0.4575000      2.3016489E-18
  0.4580000      5.9913902E-19
  0.4585000     -1.2187510E-18
  0.4590000     -3.1268298E-18
  0.4595000     -5.0967871E-18
  0.4600000     -7.0975496E-18
  0.4605000     -9.0955060E-18
  0.4610000     -1.1055114E-17
  0.4615000     -1.2939431E-17
  0.4620000     -1.4710645E-17
  0.4625000     -1.6330507E-17
  0.4630000     -1.7761482E-17
  0.4635000     -1.8966945E-17
  0.4640000     -1.9912237E-17
  0.4645000     -2.0565143E-17
  0.4650000     -2.0897082E-17
  0.4655000     -2.0883180E-17
  0.4660000     -2.0503423E-17
  0.4665000     -1.9743370E-17
  0.4670000     -1.8594224E-17
  0.4675000     -1.7053839E-17
  0.4680000     -1.5126711E-17
  0.4685000     -1.2824820E-17
  0.4690000     -1.0167362E-17
  0.4695000     -7.1809162E-18
  0.4700000     -3.8997149E-18
  0.4705000     -3.6490662E-19
  0.4710000      3.3752106E-18
  0.4715000      7.2661009E-18
  0.4720000      1.1247533E-17
  0.4725000      1.5253928E-17
  0.4730000      1.9216003E-17
  0.4735000      2.3061058E-17
  0.4740000      2.6714888E-17
  0.4745000      3.0102386E-17
  0.4750000      3.3148737E-17
  0.4755000      3.5781861E-17
  0.4760000      3.7932574E-17
  0.4765000      3.9536911E-17
  0.4770000      4.0537220E-17
  0.4775000      4.0883772E-17
  0.4780000      4.0535725E-17
  0.4785000      3.9462431E-17
  0.4790000      3.7644930E-17
  0.4795000      3.5076402E-17
  0.4800000      3.1763411E-17
  0.4805000      2.7725652E-17
  0.4810000      2.2997626E-17
  0.4815000      1.7627432E-17
  0.4820000      1.1677277E-17
  0.4825000      5.2231133E-18
  0.4830000     -1.6463972E-18