  0.0000000E+00  0.0000000E+00
  5.0000002E-04  0.0000000E+00
  1.0000000E-03  0.0000000E+00
  1.5000000E-03  0.0000000E+00
  2.0000001E-03  0.0000000E+00
  2.4999999E-03  0.0000000E+00
  3.0000000E-03  0.0000000E+00
  3.5000001E-03  0.0000000E+00
  4.0000002E-03  0.0000000E+00
  4.4999998E-03  0.0000000E+00
  4.9999999E-03  0.0000000E+00
  5.5000000E-03  0.0000000E+00
  6.0000001E-03  0.0000000E+00
  6.5000001E-03  0.0000000E+00
  7.0000002E-03  0.0000000E+00
  7.4999998E-03  0.0000000E+00
  8.0000004E-03  0.0000000E+00
  8.5000005E-03  0.0000000E+00
  8.9999996E-03  0.0000000E+00
  9.4999997E-03  0.0000000E+00
  9.9999998E-03  0.0000000E+00
  1.0500000E-02  0.0000000E+00
  1.1000000E-02  0.0000000E+00
  1.1500000E-02  0.0000000E+00
  1.2000000E-02  0.0000000E+00
  1.2500000E-02  0.0000000E+00
  1.3000000E-02  0.0000000E+00
  1.3500000E-02  0.0000000E+00
  1.4000000E-02  0.0000000E+00
  1.4500000E-02  0.0000000E+00
  1.5000000E-02  0.0000000E+00
  1.5500000E-02  0.0000000E+00
  1.6000001E-02  0.0000000E+00
  1.6500000E-02  0.0000000E+00
  1.7000001E-02  0.0000000E+00
  1.7500000E-02  0.0000000E+00
  1.7999999E-02  0.0000000E+00
  1.8500000E-02  0.0000000E+00
  1.8999999E-02  0.0000000E+00
  1.9500000E-02  0.0000000E+00
  2.0000000E-02  0.0000000E+00
  2.0500001E-02  0.0000000E+00
  2.1000000E-02  0.0000000E+00
  2.1500001E-02  0.0000000E+00
  2.2000000E-02  0.0000000E+00
  2.2500001E-02  0.0000000E+00
  2.3000000E-02  0.0000000E+00
  2.3499999E-02  0.0000000E+00
  2.4000000E-02  0.0000000E+00
  2.4499999E-02  0.0000000E+00
  2.5000000E-02  0.0000000E+00
  2.5500000E-02  0.0000000E+00
  2.6000001E-02  0.0000000E+00
  2.6500000E-02  0.0000000E+00
  2.7000001E-02  0.0000000E+00
  2.7500000E-02  0.0000000E+00
  2.8000001E-02  0.0000000E+00
  2.8500000E-02  0.0000000E+00
  2.8999999E-02  0.0000000E+00
  2.9500000E-02  0.0000000E+00
  2.9999999E-02  0.0000000E+00
  3.0500000E-02  0.0000000E+00
  3.0999999E-02  0.0000000E+00
  3.1500001E-02  0.0000000E+00
  3.2000002E-02  0.0000000E+00
  3.2499999E-02  0.0000000E+00
  3.3000000E-02  0.0000000E+00
  3.3500001E-02  0.0000000E+00
  3.4000002E-02  0.0000000E+00
  3.4499999E-02  0.0000000E+00
  3.5000000E-02  0.0000000E+00
  3.5500001E-02  0.0000000E+00
  3.5999998E-02  0.0000000E+00
  3.6499999E-02  0.0000000E+00
  3.7000000E-02  0.0000000E+00
  3.7500001E-02  0.0000000E+00
  3.7999999E-02  0.0000000E+00
  3.8500000E-02  0.0000000E+00
  3.9000001E-02  0.0000000E+00
  3.9500002E-02  0.0000000E+00
  3.9999999E-02  0.0000000E+00
  4.0500000E-02  0.0000000E+00
  4.1000001E-02  0.0000000E+00
  4.1499998E-02  0.0000000E+00
  4.1999999E-02  0.0000000E+00
  4.2500000E-02  0.0000000E+00
  4.3000001E-02  0.0000000E+00
  4.3499999E-02  0.0000000E+00
  4.4000000E-02  0.0000000E+00
  4.4500001E-02  0.0000000E+00
  4.5000002E-02  0.0000000E+00
  4.5499999E-02  0.0000000E+00
  4.6000000E-02  0.0000000E+00
  4.6500001E-02  0.0000000E+00
  4.6999998E-02  0.0000000E+00
  4.7499999E-02  0.0000000E+00
  4.8000000E-02  0.0000000E+00
  4.8500001E-02  0.0000000E+00
  4.8999999E-02  0.0000000E+00
  4.9500000E-02  0.0000000E+00
  5.0000001E-02  0.0000000E+00
  5.0500002E-02  0.0000000E+00
  5.0999999E-02  0.0000000E+00
  5.1500000E-02  0.0000000E+00
  5.2000001E-02  0.0000000E+00
  5.2499998E-02  0.0000000E+00
  5.2999999E-02  0.0000000E+00
  5.3500000E-02  0.0000000E+00
  5.4000001E-02  0.0000000E+00
  5.4499999E-02  0.0000000E+00
  5.5000000E-02  0.0000000E+00
  5.5500001E-02  0.0000000E+00
  5.6000002E-02  0.0000000E+00
  5.6499999E-02  0.0000000E+00
  5.7000000E-02  0.0000000E+00
  5.7500001E-02  0.0000000E+00
  5.7999998E-02  0.0000000E+00
  5.8499999E-02  0.0000000E+00
  5.9000000E-02  0.0000000E+00
  5.9500001E-02  0.0000000E+00
  5.9999999E-02  0.0000000E+00
  6.0500000E-02  0.0000000E+00
  6.1000001E-02  0.0000000E+00
  6.1500002E-02  0.0000000E+00
  6.1999999E-02  0.0000000E+00
  6.2500000E-02  0.0000000E+00
  6.3000001E-02  0.0000000E+00
  6.3500002E-02  0.0000000E+00
  6.4000003E-02  0.0000000E+00
  6.4499997E-02  0.0000000E+00
  6.4999998E-02  0.0000000E+00
  6.5499999E-02  0.0000000E+00
  6.6000000E-02  0.0000000E+00
  6.6500001E-02  0.0000000E+00
  6.7000002E-02  0.0000000E+00
  6.7500003E-02  0.0000000E+00
  6.8000004E-02  0.0000000E+00
  6.8499997E-02  0.0000000E+00
  6.8999998E-02  0.0000000E+00
  6.9499999E-02  0.0000000E+00
  7.0000000E-02  0.0000000E+00
  7.0500001E-02  0.0000000E+00
  7.1000002E-02  0.0000000E+00
  7.1500003E-02  0.0000000E+00
  7.1999997E-02  0.0000000E+00
  7.2499998E-02  0.0000000E+00
  7.2999999E-02  0.0000000E+00
  7.3500000E-02  0.0000000E+00
  7.4000001E-02  0.0000000E+00
  7.4500002E-02  0.0000000E+00
  7.5000003E-02  0.0000000E+00
  7.5499997E-02  0.0000000E+00
  7.5999998E-02  0.0000000E+00
  7.6499999E-02  0.0000000E+00
  7.7000000E-02  0.0000000E+00
  7.7500001E-02  0.0000000E+00
  7.8000002E-02  0.0000000E+00
  7.8500003E-02  0.0000000E+00
  7.9000004E-02  0.0000000E+00
  7.9499997E-02  0.0000000E+00
  7.9999998E-02  0.0000000E+00
  8.0499999E-02  0.0000000E+00
  8.1000000E-02  0.0000000E+00
  8.1500001E-02  0.0000000E+00
  8.2000002E-02  0.0000000E+00
  8.2500003E-02  0.0000000E+00
  8.2999997E-02  0.0000000E+00
  8.3499998E-02  0.0000000E+00
  8.3999999E-02  0.0000000E+00
  8.4500000E-02  0.0000000E+00
  8.5000001E-02  0.0000000E+00
  8.5500002E-02  0.0000000E+00
  8.6000003E-02  0.0000000E+00
  8.6499996E-02  0.0000000E+00
  8.6999997E-02  0.0000000E+00
  8.7499999E-02  0.0000000E+00
  8.8000000E-02  0.0000000E+00
  8.8500001E-02  0.0000000E+00
  8.9000002E-02  0.0000000E+00
  8.9500003E-02  0.0000000E+00
  9.0000004E-02  0.0000000E+00
  9.0499997E-02  0.0000000E+00
  9.0999998E-02  0.0000000E+00
  9.1499999E-02  0.0000000E+00
  9.2000000E-02  0.0000000E+00
  9.2500001E-02  0.0000000E+00
  9.3000002E-02  0.0000000E+00
  9.3500003E-02  0.0000000E+00
  9.3999997E-02  0.0000000E+00
  9.4499998E-02  0.0000000E+00
  9.4999999E-02  0.0000000E+00
  9.5500000E-02  0.0000000E+00
  9.6000001E-02  0.0000000E+00
  9.6500002E-02  0.0000000E+00
  9.7000003E-02  0.0000000E+00
  9.7499996E-02  0.0000000E+00
  9.7999997E-02  0.0000000E+00
  9.8499998E-02  0.0000000E+00
  9.8999999E-02  0.0000000E+00
  9.9500000E-02  0.0000000E+00
  0.1000000      0.0000000E+00
  0.1005000      0.0000000E+00
  0.1010000      0.0000000E+00
  0.1015000      0.0000000E+00
  0.1020000      0.0000000E+00
  0.1025000      0.0000000E+00
  0.1030000      0.0000000E+00
  0.1035000      0.0000000E+00
  0.1040000      0.0000000E+00
  0.1045000      0.0000000E+00
  0.1050000      0.0000000E+00
  0.1055000      0.0000000E+00
  0.1060000      0.0000000E+00
  0.1065000      0.0000000E+00
  0.1070000      0.0000000E+00
  0.1075000      0.0000000E+00
  0.1080000      0.0000000E+00
  0.1085000      1.3186015E-38
  0.1090000      1.8835242E-38
  0.1095000      2.3771212E-38
  0.1100000      2.5229617E-38
  0.1105000      2.2743046E-38
  0.1110000      1.6782355E-38
  0.1115000      0.0000000E+00
  0.1120000      0.0000000E+00
  0.1125000     -2.4714631E-38
  0.1130000     -3.5720042E-38
  0.1135000     -5.1044763E-38
  0.1140000     -6.1598160E-38
  0.1145000     -6.3033000E-38
  0.1150000     -7.0464652E-38
  0.1155000     -8.5688011E-38
  0.1160000     -8.4671588E-38
  0.1165000     -3.2393127E-38
  0.1170000      2.7383889E-38
  0.1175000      3.4019174E-38
  0.1180000      4.3386731E-38
  0.1185000      1.0347539E-37
  0.1190000      1.8150892E-37
  0.1195000      2.4236526E-37
  0.1200000      2.6503874E-37
  0.1205000      2.1894903E-37
  0.1210000      2.8445271E-38
  0.1215000     -2.6551664E-37
  0.1220000     -5.3196021E-37
  0.1225000     -7.7679521E-37
  0.1230000     -1.0137481E-36
  0.1235000     -1.1176426E-36
  0.1240000     -1.0607925E-36
  0.1245000     -8.4197106E-37
  0.1250000     -3.6804826E-37
  0.1255000      5.2664976E-37
  0.1260000      1.6499671E-36
  0.1265000      2.8335858E-36
  0.1270000      4.1267887E-36
  0.1275000      5.4222622E-36
  0.1280000      6.6056160E-36
  0.1285000      7.5712598E-36
  0.1290000      8.2784154E-36
  0.1295000      8.3688518E-36
  0.1300000      7.7229441E-36
  0.1305000      6.9475519E-36
  0.1310000      6.0656778E-36
  0.1315000      4.7676513E-36
  0.1320000      3.3073740E-36
  0.1325000      1.6653790E-36
  0.1330000     -2.3048129E-37
  0.1335000     -2.0885521E-36
  0.1340000     -3.7178808E-36
  0.1345000     -5.1333208E-36
  0.1350000     -6.2255584E-36
  0.1355000     -6.8876055E-36
  0.1360000     -7.1098367E-36
  0.1365000     -6.7713762E-36
  0.1370000     -5.8723613E-36
  0.1375000     -4.6349257E-36
  0.1380000     -2.9788701E-36
  0.1385000     -9.2586198E-37
  0.1390000      1.3694178E-36
  0.1395000      4.2174695E-36
  0.1400000      7.8446318E-36
  0.1405000      1.2337704E-35
  0.1410000      1.7874014E-35
  0.1415000      2.4709121E-35
  0.1420000      3.2825522E-35
  0.1425000      4.1232057E-35
  0.1430000      4.8628296E-35
  0.1435000      5.4110915E-35
  0.1440000      5.6805782E-35
  0.1445000      5.5819348E-35
  0.1450000      5.0384282E-35
  0.1455000      3.9838100E-35
  0.1460000      2.3649750E-35
  0.1465000      1.6198693E-36
  0.1470000     -2.6954151E-35
  0.1475000     -6.2820490E-35
  0.1480000     -1.0555388E-34
  0.1485000     -1.5356647E-34
  0.1490000     -2.0463915E-34
  0.1495000     -2.5613666E-34
  0.1500000     -3.0477267E-34
  0.1505000     -3.4677290E-34
  0.1510000     -3.7795966E-34
  0.1515000     -3.9406846E-34
  0.1520000     -3.9095831E-34
  0.1525000     -3.6480094E-34
  0.1530000     -3.1236007E-34
  0.1535000     -2.3126483E-34
  0.1540000     -1.2024583E-34
  0.1545000      2.0611662E-35
  0.1550000      1.8966933E-34
  0.1555000      3.8361099E-34
  0.1560000      5.9732484E-34
  0.1565000      8.2390188E-34
  0.1570000      1.0546801E-33
  0.1575000      1.2793654E-33
  0.1580000      1.4862502E-33
  0.1585000      1.6624943E-33
  0.1590000      1.7944786E-33
  0.1595000      1.8682477E-33
  0.1600000      1.8700100E-33
  0.1605000      1.7867073E-33
  0.1610000      1.6066512E-33
  0.1615000      1.3201989E-33
  0.1620000      9.2049087E-34
  0.1625000      4.0422812E-34
  0.1630000     -2.2756232E-34
  0.1635000     -9.6874087E-34
  0.1640000     -1.8073259E-33
  0.1645000     -2.7248664E-33
  0.1650000     -3.6959295E-33
  0.1655000     -4.6878222E-33
  0.1660000     -5.6606140E-33
  0.1665000     -6.5675053E-33
  0.1670000     -7.3555802E-33
  0.1675000     -7.9670445E-33
  0.1680000     -8.3410280E-33
  0.1685000     -8.4159063E-33
  0.1690000     -8.1321338E-33
  0.1695000     -7.4355381E-33
  0.1700000     -6.2809764E-33
  0.1705000     -4.6362382E-33
  0.1710000     -2.4859887E-33
  0.1715000      1.6444591E-34
  0.1720000      3.2856716E-33
  0.1725000      6.8214944E-33
  0.1730000      1.0687078E-32
  0.1735000      1.4768194E-32
  0.1740000      1.8921790E-32
  0.1745000      2.2978045E-32
  0.1750000      2.6743989E-32
  0.1755000      3.0008666E-32
  0.1760000      3.2549797E-32
  0.1765000      3.4141866E-32
  0.1770000      3.4565314E-32
  0.1775000      3.3616658E-32
  0.1780000      3.1119153E-32
  0.1785000      2.6933658E-32
  0.1790000      2.0969351E-32
  0.1795000      1.3193759E-32
  0.1800000      3.6418905E-33
  0.1805000     -7.5760104E-33
  0.1810000     -2.0268536E-32
  0.1815000     -3.4159205E-32
  0.1820000     -4.8884960E-32
  0.1825000     -6.3997451E-32
  0.1830000     -7.8967359E-32
  0.1835000     -9.3192017E-32
  0.1840000     -1.0600670E-31
  0.1845000     -1.1669974E-31
  0.1850000     -1.2453165E-31
  0.1855000     -1.2875842E-31
  0.1860000     -1.2865883E-31
  0.1865000     -1.2356571E-31
  0.1870000     -1.1290037E-31
  0.1875000     -9.6209822E-32
  0.1880000     -7.3205327E-32
  0.1885000     -4.3800974E-32
  0.1890000     -8.1506457E-33
  0.1895000      3.3318970E-32
  0.1900000      7.9881700E-32
  0.1905000      1.3049397E-31
  0.1910000      1.8378793E-31
  0.1915000      2.3807837E-31
  0.1920000      2.9138516E-31
  0.1925000      3.4147276E-31
  0.1930000      3.8590737E-31
  0.1935000      4.2213154E-31
  0.1940000      4.4755542E-31
  0.1945000      4.5966164E-31
  0.1950000      4.5612082E-31
  0.1955000      4.3491373E-31
  0.1960000      3.9445401E-31
  0.1965000      3.3370693E-31
  0.1970000      2.5229663E-31
  0.1975000      1.5059632E-31
  0.1980000      2.9796798E-32
  0.1985000     -1.0805259E-31
  0.1990000     -2.6003442E-31
  0.1995000     -4.2238705E-31
  0.2000000     -5.9056333E-31
  0.2005000     -7.5932304E-31
  0.2010000     -9.2285739E-31
  0.2015000     -1.0749415E-30
  0.2020000     -1.2091120E-30
  0.2025000     -1.3188614E-30
  0.2030000     -1.3978463E-30
  0.2035000     -1.4401009E-30
  0.2040000     -1.4402511E-30
  0.2045000     -1.3937235E-30
  0.2050000     -1.2969441E-30
  0.2055000     -1.1475222E-30
  0.2060000     -9.4441360E-31
  0.2065000     -6.8806288E-31
  0.2070000     -3.8051944E-31
  0.2075000     -2.5522771E-32
  0.2080000      3.7144683E-31
  0.2085000      8.0315473E-31
  0.2090000      1.2606431E-30
  0.2095000      1.7333095E-30
  0.2100000      2.2090398E-30
  0.2105000      2.6743984E-30
  0.2110000      3.1148814E-30
  0.2115000      3.5152284E-30
  0.2120000      3.8597995E-30
  0.2125000      4.1330028E-30
  0.2130000      4.3197695E-30
  0.2135000      4.4060601E-30
  0.2140000      4.3793819E-30
  0.2145000      4.2292985E-30
  0.2150000      3.9479047E-30
  0.2155000      3.5302412E-30
  0.2160000      2.9746259E-30
  0.2165000      2.2828768E-30
  0.2170000      1.4604104E-30
  0.2175000      5.1620673E-31
  0.2180000     -5.3735975E-31
  0.2185000     -1.6848152E-30
  0.2190000     -2.9079861E-30
  0.2195000     -4.1864771E-30
  0.2200000     -5.4981783E-30
  0.2205000     -6.8197698E-30
  0.2210000     -8.1271708E-30
  0.2215000     -9.3958802E-30
  0.2220000     -1.0601184E-29
  0.2225000     -1.1718186E-29
  0.2230000     -1.2721670E-29
  0.2235000     -1.3585775E-29
  0.2240000     -1.4283529E-29
  0.2245000     -1.4786291E-29
  0.2250000     -1.5063148E-29
  0.2255000     -1.5080391E-29
  0.2260000     -1.4801148E-29
  0.2265000     -1.4185278E-29
  0.2270000     -1.3189636E-29
  0.2275000     -1.1768818E-29
  0.2280000     -9.8764343E-30
  0.2285000     -7.4669733E-30
  0.2290000     -4.4982351E-30
  0.2295000     -9.3432739E-31
  0.2300000      3.2508464E-30
  0.2305000      8.0697473E-30
  0.2310000      1.3517165E-29
  0.2315000      1.9566150E-29
  0.2320000      2.6164174E-29
  0.2325000      3.3229682E-29
  0.2330000      4.0649309E-29
  0.2335000      4.8275923E-29
  0.2340000      5.5927718E-29
  0.2345000      6.3388493E-29
  0.2350000      7.0409176E-29
  0.2355000      7.6710711E-29
  0.2360000      8.1988294E-29
  0.2365000      8.5916866E-29
  0.2370000      8.8157933E-29
  0.2375000      8.8367432E-29
  0.2380000      8.6204678E-29
  0.2385000      8.1342109E-29
  0.2390000      7.3475949E-29
  0.2395000      6.2337405E-29
  0.2400000      4.7704469E-29
  0.2405000      2.9414219E-29
  0.2410000      7.3754352E-30
  0.2415000     -1.8418341E-29
  0.2420000     -4.7875708E-29
  0.2425000     -8.0794296E-29
  0.2430000     -1.1684779E-28
  0.2435000     -1.5557373E-28
  0.2440000     -1.9636233E-28
  0.2445000     -2.3844715E-28
  0.2450000     -2.8089797E-28
  0.2455000     -3.2261720E-28
  0.2460000     -3.6234046E-28
  0.2465000     -3.9864263E-28
  0.2470000     -4.2995014E-28
  0.2475000     -4.5456059E-28
  0.2480000     -4.7067099E-28
  0.2485000     -4.7641503E-28
  0.2490000     -4.6990952E-28
  0.2495000     -4.4931098E-28
  0.2500000     -4.1288105E-28
  0.2505000     -3.5906089E-28
  0.2510000     -2.8655245E-28
  0.2515000     -1.9440519E-28
  0.2520000     -8.2105938E-29
  0.2525000      5.0331137E-29
  0.2530000      2.0227811E-28
  0.2535000      3.7241375E-28
  0.2540000      5.5865512E-28
  0.2545000      7.5810246E-28
  0.2550000      9.6700451E-28
  0.2555000      1.1807469E-27
  0.2560000      1.3938644E-27
  0.2565000      1.6000852E-27
  0.2570000      1.7924054E-27
  0.2575000      1.9631961E-27
  0.2580000      2.1043464E-27
  0.2585000      2.2074379E-27
  0.2590000      2.2639545E-27
  0.2595000      2.2655190E-27
  0.2600000      2.2041610E-27
  0.2605000      2.0726061E-27
  0.2610000      1.8645793E-27
  0.2615000      1.5751236E-27
  0.2620000      1.2009215E-27
  0.2625000      7.4060928E-28
  0.2630000      1.9507712E-28
  0.2635000     -4.3225341E-28
  0.2640000     -1.1351891E-27
  0.2645000     -1.9045716E-27
  0.2650000     -2.7281408E-27
  0.2655000     -3.5904677E-27
  0.2660000     -4.4729673E-27
  0.2665000     -5.3540059E-27
  0.2670000     -6.2091069E-27
  0.2675000     -7.0112625E-27
  0.2680000     -7.7313638E-27
  0.2685000     -8.3387459E-27
  0.2690000     -8.8018465E-27
  0.2695000     -9.0889911E-27
  0.2700000     -9.1692631E-27
  0.2705000     -9.0134893E-27
  0.2710000     -8.5952898E-27
  0.2715000     -7.8921882E-27
  0.2720000     -6.8867503E-27
  0.2725000     -5.5677183E-27
  0.2730000     -3.9311111E-27
  0.2735000     -1.9812509E-27
  0.2740000      2.6833467E-28
  0.2745000      2.7941496E-27
  0.2750000      5.5621793E-27
  0.2755000      8.5275802E-27
  0.2760000      1.1634628E-26
  0.2765000      1.4817003E-26
  0.2770000      1.7998385E-26
  0.2775000      2.1093421E-26
  0.2780000      2.4009046E-26
  0.2785000      2.6646181E-26
  0.2790000      2.8901780E-26
  0.2795000      3.0671211E-26
  0.2800000      3.1850946E-26
  0.2805000      3.2341488E-26
  0.2810000      3.2050547E-26
  0.2815000      3.0896283E-26
  0.2820000      2.8810655E-26
  0.2825000      2.5742718E-26
  0.2830000      2.1661835E-26
  0.2835000      1.6560636E-26
  0.2840000      1.0457678E-26
  0.2845000      3.3997116E-27
  0.2850000     -4.5365784E-27
  0.2855000     -1.3243438E-26
  0.2860000     -2.2581601E-26
  0.2865000     -3.2380592E-26
  0.2870000     -4.2439903E-26
  0.2875000     -5.2531055E-26
  0.2880000     -6.2400531E-26
  0.2885000     -7.1773702E-26
  0.2890000     -8.0359670E-26
  0.2895000     -8.7857066E-26
  0.2900000     -9.3960600E-26
  0.2905000     -9.8368533E-26
  0.2910000     -1.0079068E-25
  0.2915000     -1.0095706E-25
  0.2920000     -9.8626842E-26
  0.2925000     -9.3597558E-26
  0.2930000     -8.5714206E-26
  0.2935000     -7.4878129E-26
  0.2940000     -6.1055394E-26
  0.2945000     -4.4284306E-26
  0.2950000     -2.4681955E-26
  0.2955000     -2.4493420E-27
  0.2960000      2.2125216E-26
  0.2965000      4.8664429E-26
  0.2970000      7.6702628E-26
  0.2975000      1.0568866E-25
  0.2980000      1.3499139E-25
  0.2985000      1.6390784E-25
  0.2990000      1.9167397E-25
  0.2995000      2.1747835E-25
  0.3000000      2.4047838E-25
  0.3005000      2.5981891E-25
  0.3010000      2.7465321E-25
  0.3015000      2.8416592E-25
  0.3020000      2.8759724E-25
  0.3025000      2.8426834E-25
  0.3030000      2.7360704E-25
  0.3035000      2.5517318E-25
  0.3040000      2.2868311E-25
  0.3045000      1.9403226E-25
  0.3050000      1.5131521E-25
  0.3055000      1.0084237E-25
  0.3060000      4.3152568E-26
  0.3065000     -2.0979310E-26
  0.3070000     -9.0540222E-26
  0.3075000     -1.6428311E-25
  0.3080000     -2.4073769E-25
  0.3085000     -3.1822807E-25
  0.3090000     -3.9489736E-25
  0.3095000     -4.6874007E-25
  0.3100000     -5.3764085E-25
  0.3105000     -5.9941946E-25
  0.3110000     -6.5188226E-25
  0.3115000     -6.9287828E-25
  0.3120000     -7.2035889E-25
  0.3125000     -7.3244064E-25
  0.3130000     -7.2746938E-25
  0.3135000     -7.0408321E-25
  0.3140000     -6.6127375E-25
  0.3145000     -5.9844393E-25
  0.3150000     -5.1545902E-25
  0.3155000     -4.1269046E-25
  0.3160000     -2.9105008E-25
  0.3165000     -1.5201383E-25
  0.3170000      2.3684590E-27
  0.3175000      1.6947636E-25
  0.3180000      3.4613819E-25
  0.3185000      5.2866598E-25
  0.3190000      7.1290721E-25
  0.3195000      8.9431307E-25
  0.3200000      1.0680232E-24
  0.3205000      1.2289657E-24
  0.3210000      1.3719718E-24
  0.3215000      1.4919032E-24
  0.3220000      1.5837896E-24
  0.3225000      1.6429735E-24
  0.3230000      1.6652607E-24
  0.3235000      1.6470711E-24
  0.3240000      1.5855864E-24
  0.3245000      1.4788917E-24
  0.3250000      1.3261046E-24
  0.3255000      1.1274879E-24
  0.3260000      8.8454273E-25
  0.3265000      6.0007594E-25
  0.3270000      2.7823827E-25
  0.3275000     -7.5471038E-26
  0.3280000     -4.5423558E-25
  0.3285000     -8.4999230E-25
  0.3290000     -1.2535433E-24
  0.3295000     -1.6547089E-24
  0.3300000     -2.0425220E-24
  0.3305000     -2.4054623E-24
  0.3310000     -2.7317259E-24
  0.3315000     -3.0095304E-24
  0.3320000     -3.2274430E-24
  0.3325000     -3.3747304E-24
  0.3330000     -3.4417220E-24
  0.3335000     -3.4201727E-24
  0.3340000     -3.3036185E-24
  0.3345000     -3.0877136E-24
  0.3350000     -2.7705359E-24
  0.3355000     -2.3528524E-24
  0.3360000     -1.8383250E-24
  0.3365000     -1.2336575E-24
  0.3370000     -5.4866504E-25
  0.3375000      2.0374167E-25
  0.3380000      1.0076610E-24
  0.3385000      1.8444004E-24
  0.3390000      2.6927753E-24
  0.3395000      3.5295073E-24
  0.3400000      4.3297155E-24
  0.3405000      5.0674926E-24
  0.3410000      5.7165642E-24
  0.3415000      6.2510119E-24
  0.3420000      6.6460498E-24
  0.3425000      6.8788308E-24
  0.3430000      6.9292595E-24
  0.3435000      6.7808030E-24
  0.3440000      6.4212587E-24
  0.3445000      5.8434627E-24
  0.3450000      5.0459141E-24
  0.3455000      4.0332880E-24
  0.3460000      2.8168105E-24
  0.3465000      1.4144827E-24
  0.3470000     -1.4887171E-25
  0.3475000     -1.8417461E-24
  0.3480000     -3.6262926E-24
  0.3485000     -5.4588630E-24
  0.3490000     -7.2907629E-24
  0.3495000     -9.0692025E-24
  0.3500000     -1.0738438E-23
  0.3505000     -1.2241080E-23
  0.3510000     -1.3519561E-23
  0.3515000     -1.4517712E-23
  0.3520000     -1.5182430E-23
  0.3525000     -1.5465400E-23
  0.3530000     -1.5324811E-23
  0.3535000     -1.4727034E-23
  0.3540000     -1.3648206E-23
  0.3545000     -1.2075679E-23
  0.3550000     -1.0009285E-23
  0.3555000     -7.4623520E-24
  0.3560000     -4.4624528E-24
  0.3565000     -1.0518213E-24
  0.3570000      2.7125759E-24
  0.3575000      6.7593618E-24
  0.3580000      1.1003470E-23
  0.3585000      1.5347284E-23
  0.3590000      1.9682199E-23
  0.3595000      2.3890583E-23
  0.3600000      2.7848125E-23
  0.3605000      3.1426549E-23
  0.3610000      3.4496613E-23
  0.3615000      3.6931407E-23
  0.3620000      3.8609800E-23
  0.3625000      3.9420023E-23
  0.3630000      3.9263292E-23
  0.3635000      3.8057351E-23
  0.3640000      3.5739902E-23
  0.3645000      3.2271754E-23
  0.3650000      2.7639632E-23
  0.3655000      2.1858547E-23
  0.3660000      1.4973645E-23
  0.3665000      7.0614229E-24
  0.3670000     -1.7697400E-24
  0.3675000     -1.1379808E-23
  0.3680000     -2.1598085E-23
  0.3685000     -3.2225072E-23
  0.3690000     -4.3035136E-23
  0.3695000     -5.3780018E-23
  0.3700000     -6.4193121E-23
  0.3705000     -7.3994560E-23
  0.3710000     -8.2896836E-23
  0.3715000     -9.0611170E-23
  0.3720000     -9.6854190E-23
  0.3725000     -1.0135507E-22
  0.3730000     -1.0386271E-22
  0.3735000     -1.0415298E-22
  0.3740000     -1.0203591E-22
  0.3745000     -9.7362425E-23
  0.3750000     -9.0030669E-23
  0.3755000     -7.9991632E-23
  0.3760000     -6.7253926E-23
  0.3765000     -5.1887575E-23
  0.3770000     -3.4026619E-23
  0.3775000     -1.3870555E-23
  0.3780000      8.3155287E-24
  0.3785000      3.2202432E-23
  0.3790000      5.7399697E-23
  0.3795000      8.3459862E-23
  0.3800000      1.0988431E-22
  0.3805000      1.3613042E-22
  0.3810000      1.6162019E-22
  0.3815000      1.8575007E-22
  0.3820000      2.0790188E-22
  0.3825000      2.2745455E-22
  0.3830000      2.4379679E-22
  0.3835000      2.5634031E-22
  0.3840000      2.6453306E-22
  0.3845000      2.6787268E-22
  0.3850000      2.6591994E-22
  0.3855000      2.5831161E-22
  0.3860000      2.4477246E-22
  0.3865000      2.2512661E-22
  0.3870000      1.9930735E-22
  0.3875000      1.6736565E-22
  0.3880000      1.2947688E-22
  0.3885000      8.5945771E-23
  0.3890000      3.7209064E-23
  0.3895000     -1.6164041E-23
  0.3900000     -7.3473640E-23
  0.3905000     -1.3389369E-22
  0.3910000     -1.9647904E-22
  0.3915000     -2.6017504E-22
  0.3920000     -3.2382965E-22
  0.3925000     -3.8620828E-22
  0.3930000     -4.4601110E-22
  0.3935000     -5.0189259E-22
  0.3940000     -5.5248304E-22
  0.3945000     -5.9641206E-22
  0.3950000     -6.3233419E-22
  0.3955000     -6.5895538E-22
  0.3960000     -6.7506026E-22
  0.3965000     -6.7954018E-22
  0.3970000     -6.7142105E-22
  0.3975000     -6.4989118E-22
  0.3980000     -6.1432771E-22
  0.3985000     -5.6432191E-22
  0.3990000     -4.9970206E-22
  0.3995000     -4.2055384E-22
  0.4000000     -3.2723826E-22
  0.4005000     -2.2040579E-22
  0.4010000     -1.0100485E-22
  0.4015000      2.9713254E-23
  0.4020000      1.7019348E-22
  0.4025000      3.1858366E-22
  0.4030000      4.7274553E-22
  0.4035000      6.3027230E-22
  0.4040000      7.8851209E-22
  0.4045000      9.4459836E-22
  0.4050000      1.0954853E-21
  0.4055000      1.2379901E-21
  0.4060000      1.3688400E-21
  0.4065000      1.4847260E-21
  0.4070000      1.5823587E-21
  0.4075000      1.6585309E-21
  0.4080000      1.7101810E-21
  0.4085000      1.7344616E-21
  0.4090000      1.7288069E-21
  0.4095000      1.6910011E-21
  0.4100000      1.6192443E-21
  0.4105000      1.5122192E-21
  0.4110000      1.3691515E-21
  0.4115000      1.1898654E-21
  0.4120000      9.7483387E-22
  0.4125000      7.2521798E-22
  0.4130000      4.4290130E-22
  0.4135000      1.3050944E-22
  0.4140000     -2.0858120E-22
  0.4145000     -5.7024546E-22
  0.4150000     -9.4962808E-22
  0.4155000     -1.3411759E-21
  0.4160000     -1.7386864E-21
  0.4165000     -2.1353722E-21
  0.4170000     -2.5239403E-21
  0.4175000     -2.8966873E-21
  0.4180000     -3.2456114E-21
  0.4185000     -3.5625352E-21
  0.4190000     -3.8392413E-21
  0.4195000     -4.0676247E-21
  0.4200000     -4.2398463E-21
  0.4205000     -4.3484994E-21
  0.4210000     -4.3867827E-21
  0.4215000     -4.3486678E-21
  0.4220000     -4.2290715E-21
  0.4225000     -4.0240204E-21
  0.4230000     -3.7308067E-21
  0.4235000     -3.3481355E-21
  0.4240000     -2.8762540E-21
  0.4245000     -2.3170648E-21
  0.4250000     -1.6742072E-21
  0.4255000     -9.5312007E-22
  0.4260000     -1.6108018E-22
  0.4265000      6.9279971E-22
  0.4270000      1.5976103E-21
  0.4275000      2.5407117E-21
  0.4280000      3.5078375E-21
  0.4285000      4.4832438E-21
  0.4290000      5.4498968E-21
  0.4295000      6.3896875E-21
  0.4300000      7.2836953E-21
  0.4305000      8.1124729E-21
  0.4310000      8.8563619E-21
  0.4315000      9.4958525E-21
  0.4320000      1.0011940E-20
  0.4325000      1.0386512E-20
  0.4330000      1.0602737E-20
  0.4335000      1.0645473E-20
  0.4340000      1.0501649E-20
  0.4345000      1.0160652E-20
  0.4350000      9.6146991E-21
  0.4355000      8.8591633E-21
  0.4360000      7.8928799E-21
  0.4365000      6.7184098E-21
  0.4370000      5.3422345E-21
  0.4375000      3.7749211E-21
  0.4380000      2.0312052E-21
  0.4385000      1.3000380E-22
  0.4390000     -1.9056432E-21
  0.4395000     -4.0487175E-21
  0.4400000     -6.2684252E-21
  0.4405000     -8.5304972E-21
  0.4410000     -1.0797580E-20
  0.4415000     -1.3029710E-20
  0.4420000     -1.5184852E-20
  0.4425000     -1.7219506E-20
  0.4430000     -1.9089419E-20
  0.4435000     -2.0750326E-20
  0.4440000     -2.2158742E-20
  0.4445000     -2.3272788E-20
  0.4450000     -2.4053057E-20
  0.4455000     -2.4463492E-20
  0.4460000     -2.4472250E-20
  0.4465000     -2.4052554E-20
  0.4470000     -2.3183493E-20
  0.4475000     -2.1850806E-20
  0.4480000     -2.0047554E-20
  0.4485000     -1.7774725E-20
  0.4490000     -1.5041733E-20
  0.4495000     -1.1866811E-20
  0.4500000     -8.2772329E-21
  0.4505000     -4.3094006E-21
  0.4510000     -8.8084643E-24
  0.4515000      4.5702056E-21
  0.4520000      9.3648817E-21
  0.4525000      1.4304622E-20
  0.4530000      1.9311741E-20
  0.4535000      2.4302439E-20
  0.4540000      2.9187905E-20
  0.4545000      3.3875586E-20
  0.4550000      3.8270610E-20
  0.4555000      4.2277363E-20
  0.4560000      4.5801113E-20
  0.4565000      4.8749812E-20
  0.4570000      5.1035877E-20
  0.4575000      5.2578052E-20
  0.4580000      5.3303247E-20
  0.4585000      5.3148342E-20
  0.4590000      5.2061946E-20
  0.4595000      5.0006044E-20
  0.4600000      4.6957460E-20
  0.4605000      4.2909193E-20
  0.4610000      3.7871540E-20
  0.4615000      3.1872904E-20
  0.4620000      2.4960388E-20
  0.4625000      1.7200104E-20
  0.4630000      8.6771044E-21
  0.4635000     -5.0500068E-22
  0.4640000     -1.0224795E-20
  0.4645000     -2.0344140E-20
  0.4650000     -3.0709697E-20
  0.4655000     -4.1154762E-20
  0.4660000     -5.1501415E-20
  0.4665000     -6.1563111E-20
  0.4670000     -7.1147511E-20
  0.4675000     -8.0059529E-20
  0.4680000     -8.8104661E-20
  0.4685000     -9.5092541E-20
  0.4690000     -1.0084059E-19
  0.4695000     -1.0517766E-19
  0.4700000     -1.0794781E-19
  0.4705000     -1.0901396E-19
  0.4710000     -1.0826141E-19
  0.4715000     -1.0560108E-19
  0.4720000     -1.0097268E-19
  0.4725000     -9.4347316E-20
  0.4730000     -8.5729832E-20
  0.4735000     -7.5160564E-20
  0.4740000     -6.2716588E-20
  0.4745000     -4.8512272E-20
  0.4750000     -3.2699480E-20
  0.4755000     -1.5466827E-20
  0.4760000      2.9617804E-21
  0.4765000      2.2329153E-20
  0.4770000      4.2347689E-20
  0.4775000      6.2702940E-20
  0.4780000      8.3057813E-20
  0.4785000      1.0305735E-19
  0.4790000      1.2233418E-19
  0.4795000      1.4051451E-19
  0.4800000      1.5722447E-19
  0.4805000      1.7209674E-19
  0.4810000      1.8477756E-19
  0.4815000      1.9493384E-19
  0.4820000      2.0226002E-19
  0.4825000      2.0648513E-19
  0.4830000      2.0737930E-19