  0.0000000E+00  0.0000000E+00
  5.0000002E-04  0.0000000E+00
  1.0000000E-03  0.0000000E+00
  1.5000000E-03  0.0000000E+00
  2.0000001E-03  0.0000000E+00
  2.4999999E-03  0.0000000E+00
  3.0000000E-03  0.0000000E+00
  3.5000001E-03  0.0000000E+00
  4.0000002E-03  0.0000000E+00
  4.4999998E-03  0.0000000E+00
  4.9999999E-03  0.0000000E+00
  5.5000000E-03  0.0000000E+00
  6.0000001E-03  0.0000000E+00
  6.5000001E-03  0.0000000E+00
  7.0000002E-03  0.0000000E+00
  7.4999998E-03  0.0000000E+00
  8.0000004E-03  0.0000000E+00
  8.5000005E-03  0.0000000E+00
  8.9999996E-03  0.0000000E+00
  9.4999997E-03  0.0000000E+00
  9.9999998E-03  0.0000000E+00
  1.0500000E-02  0.0000000E+00
  1.1000000E-02  0.0000000E+00
  1.1500000E-02  0.0000000E+00
  1.2000000E-02  0.0000000E+00
  1.2500000E-02  0.0000000E+00
  1.3000000E-02  0.0000000E+00
  1.3500000E-02  0.0000000E+00
  1.4000000E-02  0.0000000E+00
  1.4500000E-02  0.0000000E+00
  1.5000000E-02  0.0000000E+00
  1.5500000E-02  0.0000000E+00
  1.6000001E-02  0.0000000E+00
  1.6500000E-02  0.0000000E+00
  1.7000001E-02  0.0000000E+00
  1.7500000E-02  0.0000000E+00
  1.7999999E-02  0.0000000E+00
  1.8500000E-02  0.0000000E+00
  1.8999999E-02  0.0000000E+00
  1.9500000E-02  0.0000000E+00
  2.0000000E-02  0.0000000E+00
  2.0500001E-02  0.0000000E+00
  2.1000000E-02  0.0000000E+00
  2.1500001E-02  0.0000000E+00
  2.2000000E-02  0.0000000E+00
  2.2500001E-02  0.0000000E+00
  2.3000000E-02  0.0000000E+00
  2.3499999E-02  0.0000000E+00
  2.4000000E-02  0.0000000E+00
  2.4499999E-02  0.0000000E+00
  2.5000000E-02  0.0000000E+00
  2.5500000E-02  0.0000000E+00
  2.6000001E-02  0.0000000E+00
  2.6500000E-02  0.0000000E+00
  2.7000001E-02  0.0000000E+00
  2.7500000E-02  0.0000000E+00
  2.8000001E-02  0.0000000E+00
  2.8500000E-02  0.0000000E+00
  2.8999999E-02  0.0000000E+00
  2.9500000E-02  0.0000000E+00
  2.9999999E-02  0.0000000E+00
  3.0500000E-02  0.0000000E+00
  3.0999999E-02  0.0000000E+00
  3.1500001E-02  0.0000000E+00
  3.2000002E-02  0.0000000E+00
  3.2499999E-02  0.0000000E+00
  3.3000000E-02  0.0000000E+00
  3.3500001E-02  0.0000000E+00
  3.4000002E-02  0.0000000E+00
  3.4499999E-02  0.0000000E+00
  3.5000000E-02  0.0000000E+00
  3.5500001E-02  0.0000000E+00
  3.5999998E-02  0.0000000E+00
  3.6499999E-02  0.0000000E+00
  3.7000000E-02  0.0000000E+00
  3.7500001E-02  0.0000000E+00
  3.7999999E-02  0.0000000E+00
  3.8500000E-02  0.0000000E+00
  3.9000001E-02  0.0000000E+00
  3.9500002E-02  0.0000000E+00
  3.9999999E-02  0.0000000E+00
  4.0500000E-02  0.0000000E+00
  4.1000001E-02  0.0000000E+00
  4.1499998E-02  0.0000000E+00
  4.1999999E-02  0.0000000E+00
  4.2500000E-02  0.0000000E+00
  4.3000001E-02  0.0000000E+00
  4.3499999E-02  0.0000000E+00
  4.4000000E-02  0.0000000E+00
  4.4500001E-02  0.0000000E+00
  4.5000002E-02  0.0000000E+00
  4.5499999E-02  0.0000000E+00
  4.6000000E-02  0.0000000E+00
  4.6500001E-02  0.0000000E+00
  4.6999998E-02  0.0000000E+00
  4.7499999E-02  0.0000000E+00
  4.8000000E-02  0.0000000E+00
  4.8500001E-02  0.0000000E+00
  4.8999999E-02  0.0000000E+00
  4.9500000E-02  0.0000000E+00
  5.0000001E-02  0.0000000E+00
  5.0500002E-02  0.0000000E+00
  5.0999999E-02  0.0000000E+00
  5.1500000E-02  0.0000000E+00
  5.2000001E-02  0.0000000E+00
  5.2499998E-02  0.0000000E+00
  5.2999999E-02  0.0000000E+00
  5.3500000E-02  0.0000000E+00
  5.4000001E-02  0.0000000E+00
  5.4499999E-02  0.0000000E+00
  5.5000000E-02  0.0000000E+00
  5.5500001E-02  0.0000000E+00
  5.6000002E-02  0.0000000E+00
  5.6499999E-02  0.0000000E+00
  5.7000000E-02  0.0000000E+00
  5.7500001E-02  0.0000000E+00
  5.7999998E-02  0.0000000E+00
  5.8499999E-02  0.0000000E+00
  5.9000000E-02  0.0000000E+00
  5.9500001E-02  0.0000000E+00
  5.9999999E-02  0.0000000E+00
  6.0500000E-02  0.0000000E+00
  6.1000001E-02  0.0000000E+00
  6.1500002E-02  0.0000000E+00
  6.1999999E-02  0.0000000E+00
  6.2500000E-02  0.0000000E+00
  6.3000001E-02  0.0000000E+00
  6.3500002E-02  0.0000000E+00
  6.4000003E-02  0.0000000E+00
  6.4499997E-02  0.0000000E+00
  6.4999998E-02  0.0000000E+00
  6.5499999E-02  0.0000000E+00
  6.6000000E-02  0.0000000E+00
  6.6500001E-02  0.0000000E+00
  6.7000002E-02  0.0000000E+00
  6.7500003E-02  0.0000000E+00
  6.8000004E-02  0.0000000E+00
  6.8499997E-02  0.0000000E+00
  6.8999998E-02  0.0000000E+00
  6.9499999E-02  0.0000000E+00
  7.0000000E-02  0.0000000E+00
  7.0500001E-02  0.0000000E+00
  7.1000002E-02  0.0000000E+00
  7.1500003E-02  0.0000000E+00
  7.1999997E-02  0.0000000E+00
  7.2499998E-02  0.0000000E+00
  7.2999999E-02  0.0000000E+00
  7.3500000E-02  0.0000000E+00
  7.4000001E-02  0.0000000E+00
  7.4500002E-02  0.0000000E+00
  7.5000003E-02  0.0000000E+00
  7.5499997E-02  0.0000000E+00
  7.5999998E-02  0.0000000E+00
  7.6499999E-02  0.0000000E+00
  7.7000000E-02  0.0000000E+00
  7.7500001E-02  0.0000000E+00
  7.8000002E-02  0.0000000E+00
  7.8500003E-02  0.0000000E+00
  7.9000004E-02  0.0000000E+00
  7.9499997E-02  0.0000000E+00
  7.9999998E-02  0.0000000E+00
  8.0499999E-02  0.0000000E+00
  8.1000000E-02  0.0000000E+00
  8.1500001E-02  0.0000000E+00
  8.2000002E-02  0.0000000E+00
  8.2500003E-02  0.0000000E+00
  8.2999997E-02  0.0000000E+00
  8.3499998E-02  0.0000000E+00
  8.3999999E-02  0.0000000E+00
  8.4500000E-02  0.0000000E+00
  8.5000001E-02  0.0000000E+00
  8.5500002E-02  0.0000000E+00
  8.6000003E-02  0.0000000E+00
  8.6499996E-02  0.0000000E+00
  8.6999997E-02  0.0000000E+00
  8.7499999E-02  0.0000000E+00
  8.8000000E-02  0.0000000E+00
  8.8500001E-02  0.0000000E+00
  8.9000002E-02  0.0000000E+00
  8.9500003E-02  0.0000000E+00
  9.0000004E-02  0.0000000E+00
  9.0499997E-02  0.0000000E+00
  9.0999998E-02  0.0000000E+00
  9.1499999E-02  0.0000000E+00
  9.2000000E-02  0.0000000E+00
  9.2500001E-02  0.0000000E+00
  9.3000002E-02  0.0000000E+00
  9.3500003E-02  0.0000000E+00
  9.3999997E-02  0.0000000E+00
  9.4499998E-02  0.0000000E+00
  9.4999999E-02  0.0000000E+00
  9.5500000E-02  0.0000000E+00
  9.6000001E-02  0.0000000E+00
  9.6500002E-02  0.0000000E+00
  9.7000003E-02  0.0000000E+00
  9.7499996E-02  0.0000000E+00
  9.7999997E-02  0.0000000E+00
  9.8499998E-02  0.0000000E+00
  9.8999999E-02  0.0000000E+00
  9.9500000E-02  0.0000000E+00
  0.1000000      0.0000000E+00
  0.1005000      0.0000000E+00
  0.1010000      0.0000000E+00
  0.1015000      0.0000000E+00
  0.1020000      0.0000000E+00
  0.1025000      0.0000000E+00
  0.1030000      0.0000000E+00
  0.1035000      0.0000000E+00
  0.1040000      0.0000000E+00
  0.1045000      0.0000000E+00
  0.1050000      0.0000000E+00
  0.1055000      0.0000000E+00
  0.1060000      0.0000000E+00
  0.1065000      0.0000000E+00
  0.1070000      0.0000000E+00
  0.1075000      0.0000000E+00
  0.1080000      0.0000000E+00
  0.1085000      0.0000000E+00
  0.1090000      0.0000000E+00
  0.1095000      0.0000000E+00
  0.1100000      0.0000000E+00
  0.1105000      0.0000000E+00
  0.1110000      0.0000000E+00
  0.1115000      0.0000000E+00
  0.1120000      0.0000000E+00
  0.1125000      0.0000000E+00
  0.1130000      0.0000000E+00
  0.1135000      0.0000000E+00
  0.1140000      0.0000000E+00
  0.1145000      0.0000000E+00
  0.1150000      0.0000000E+00
  0.1155000      0.0000000E+00
  0.1160000      0.0000000E+00
  0.1165000      0.0000000E+00
  0.1170000      0.0000000E+00
  0.1175000      0.0000000E+00
  0.1180000      1.3498293E-38
  0.1185000      1.4081748E-38
  0.1190000      1.3054652E-38
  0.1195000      0.0000000E+00
  0.1200000      0.0000000E+00
  0.1205000      0.0000000E+00
  0.1210000      0.0000000E+00
  0.1215000     -1.3829953E-38
  0.1220000     -1.7476311E-38
  0.1225000     -2.1678369E-38
  0.1230000     -2.7940538E-38
  0.1235000     -3.5183889E-38
  0.1240000     -4.2114464E-38
  0.1245000     -4.7229033E-38
  0.1250000     -6.0398957E-38
  0.1255000     -6.5282219E-38
  0.1260000     -6.0493662E-38
  0.1265000     -4.3999390E-38
  0.1270000     -1.4189084E-38
  0.1275000      2.9040047E-38
  0.1280000      9.5875406E-38
  0.1285000      1.6800296E-37
  0.1290000      2.4832596E-37
  0.1295000      3.3136303E-37
  0.1300000      4.0969205E-37
  0.1305000      4.7545321E-37
  0.1310000      5.2022939E-37
  0.1315000      5.3483406E-37
  0.1320000      5.1145497E-37
  0.1325000      4.4285552E-37
  0.1330000      3.2367768E-37
  0.1335000      1.5034584E-37
  0.1340000     -7.9162646E-38
  0.1345000     -3.6112080E-37
  0.1350000     -6.9100489E-37
  0.1355000     -1.0599813E-36
  0.1360000     -1.4544662E-36
  0.1365000     -1.8572940E-36
  0.1370000     -2.2468218E-36
  0.1375000     -2.5974915E-36
  0.1380000     -2.8800993E-36
  0.1385000     -3.0626994E-36
  0.1390000     -3.1114734E-36
  0.1395000     -2.9926230E-36
  0.1400000     -2.6741948E-36
  0.1405000     -2.1287482E-36
  0.1410000     -1.3346128E-36
  0.1415000     -2.8173146E-37
  0.1420000      1.0269265E-36
  0.1425000      2.5728103E-36
  0.1430000      4.3213921E-36
  0.1435000      6.2159164E-36
  0.1440000      8.1844899E-36
  0.1445000      1.0135935E-35
  0.1450000      1.1962498E-35
  0.1455000      1.3542616E-35
  0.1460000      1.4744848E-35
  0.1465000      1.5432733E-35
  0.1470000      1.5470585E-35
  0.1475000      1.4730259E-35
  0.1480000      1.3098580E-35
  0.1485000      1.0485362E-35
  0.1490000      6.8315636E-36
  0.1495000      2.1178526E-36
  0.1500000     -3.6278544E-36
  0.1505000     -1.0323043E-35
  0.1510000     -1.7824950E-35
  0.1515000     -2.5926762E-35
  0.1520000     -3.4356141E-35
  0.1525000     -4.2776796E-35
  0.1530000     -5.0793272E-35
  0.1535000     -5.7959442E-35
  0.1540000     -6.3790623E-35
  0.1545000     -6.7779567E-35
  0.1550000     -6.9415851E-35
  0.1555000     -6.8208616E-35
  0.1560000     -6.3711909E-35
  0.1565000     -5.5552124E-35
  0.1570000     -4.3456497E-35
  0.1575000     -2.7281823E-35
  0.1580000     -7.0420829E-36
  0.1585000      1.7066426E-35
  0.1590000      4.4643775E-35
  0.1595000      7.5070691E-35
  0.1600000      1.0750006E-34
  0.1605000      1.4085727E-34
  0.1610000      1.7385103E-34
  0.1615000      2.0499565E-34
  0.1620000      2.3264606E-34
  0.1625000      2.5504568E-34
  0.1630000      2.7038710E-34
  0.1635000      2.7688459E-34
  0.1640000      2.7285720E-34
  0.1645000      2.5681946E-34
  0.1650000      2.2757722E-34
  0.1655000      1.8432447E-34
  0.1660000      1.2673682E-34
  0.1665000      5.5056815E-35
  0.1670000     -2.9833992E-35
  0.1675000     -1.2636149E-34
  0.1680000     -2.3222878E-34
  0.1685000     -3.4441427E-34
  0.1690000     -4.5920150E-34
  0.1695000     -5.7224447E-34
  0.1700000     -6.7866955E-34
  0.1705000     -7.7321493E-34
  0.1710000     -8.5040625E-34
  0.1715000     -9.0476514E-34
  0.1720000     -9.3104598E-34
  0.1725000     -9.2449426E-34
  0.1730000     -8.8111686E-34
  0.1735000     -7.9795348E-34
  0.1740000     -6.7333919E-34
  0.1745000     -5.0714063E-34
  0.1750000     -3.0095491E-34
  0.1755000     -5.8254768E-35
  0.1760000      2.1553405E-34
  0.1765000      5.1303583E-34
  0.1770000      8.2501952E-34
  0.1775000      1.1405932E-33
  0.1780000      1.4475016E-33
  0.1785000      1.7325275E-33
  0.1790000      1.9819887E-33
  0.1795000      2.1823205E-33
  0.1800000      2.3207234E-33
  0.1805000      2.3858507E-33
  0.1810000      2.3685052E-33
  0.1815000      2.2623101E-33
  0.1820000      2.0643099E-33
  0.1825000      1.7754643E-33
  0.1830000      1.4009881E-33
  0.1835000      9.5050069E-34
  0.1840000      4.3795310E-34
  0.1845000     -1.1869678E-34
  0.1850000     -6.9806773E-34
  0.1855000     -1.2762010E-33
  0.1860000     -1.8276461E-33
  0.1865000     -2.3267555E-33
  0.1870000     -2.7491299E-33
  0.1875000     -3.0731481E-33
  0.1880000     -3.2814920E-33
  0.1885000     -3.3625732E-33
  0.1890000     -3.3117551E-33
  0.1895000     -3.1322707E-33
  0.1900000     -2.8357365E-33
  0.1905000     -2.4421757E-33
  0.1910000     -1.9794965E-33
  0.1915000     -1.4823838E-33
  0.1920000     -9.9060498E-34
  0.1925000     -5.4676972E-34
  0.1930000     -1.9361760E-34
  0.1935000      2.9044393E-35
  0.1940000      8.7597707E-35
  0.1945000     -4.2120124E-35
  0.1950000     -3.7176099E-34
  0.1955000     -8.9783919E-34
  0.1960000     -1.5997679E-33
  0.1965000     -2.4387687E-33
  0.1970000     -3.3578363E-33
  0.1975000     -4.2829133E-33
  0.1980000     -5.1253405E-33
  0.1985000     -5.7856230E-33
  0.1990000     -6.1584274E-33
  0.1995000     -6.1386846E-33
  0.2000000     -5.6285729E-33
  0.2005000     -4.5450570E-33
  0.2010000     -2.8276280E-33
  0.2015000     -4.4580632E-34
  0.2020000      2.5940800E-33
  0.2025000      6.2433047E-33
  0.2030000      1.0406857E-32
  0.2035000      1.4941670E-32
  0.2040000      1.9657400E-32
  0.2045000      2.4320000E-32
  0.2050000      2.8658335E-32
  0.2055000      3.2373852E-32
  0.2060000      3.5153206E-32
  0.2065000      3.6683588E-32
  0.2070000      3.6670316E-32
  0.2075000      3.4856076E-32
  0.2080000      3.1041018E-32
  0.2085000      2.5102832E-32
  0.2090000      1.7015745E-32
  0.2095000      6.8673019E-33
  0.2100000     -5.1281867E-33
  0.2105000     -1.8620747E-32
  0.2110000     -3.3121449E-32
  0.2115000     -4.8005714E-32
  0.2120000     -6.2524051E-32
  0.2125000     -7.5820755E-32
  0.2130000     -8.6960827E-32
  0.2135000     -9.4965091E-32
  0.2140000     -9.8852986E-32
  0.2145000     -9.7692138E-32
  0.2150000     -9.0653419E-32
  0.2155000     -7.7069688E-32
  0.2160000     -5.6496051E-32
  0.2165000     -2.8769060E-32
  0.2170000      5.9379880E-33
  0.2175000      4.7066712E-32
  0.2180000      9.3635478E-32
  0.2185000      1.4421464E-31
  0.2190000      1.9691794E-31
  0.2195000      2.4941324E-31
  0.2200000      2.9895424E-31
  0.2205000      3.4243542E-31
  0.2210000      3.7647078E-31
  0.2215000      3.9749624E-31
  0.2220000      4.0189555E-31
  0.2225000      3.8614670E-31
  0.2230000      3.4698689E-31
  0.2235000      2.8159139E-31
  0.2240000      1.8776164E-31
  0.2245000      6.4116393E-32
  0.2250000     -8.9720312E-32
  0.2255000     -2.7294236E-31
  0.2260000     -4.8340268E-31
  0.2265000     -7.1748117E-31
  0.2270000     -9.6998681E-31
  0.2275000     -1.2341021E-30
  0.2280000     -1.5013761E-30
  0.2285000     -1.7617738E-30
  0.2290000     -2.0037860E-30
  0.2295000     -2.2146060E-30
  0.2300000     -2.3803732E-30
  0.2305000     -2.4864886E-30
  0.2310000     -2.5179982E-30
  0.2315000     -2.4600460E-30
  0.2320000     -2.2983879E-30
  0.2325000     -2.0199639E-30
  0.2330000     -1.6135185E-30
  0.2335000     -1.0702580E-30
  0.2340000     -3.8452844E-31
  0.2345000      4.4549684E-31
  0.2350000      1.4171430E-30
  0.2355000      2.5225943E-30
  0.2360000      3.7483126E-30
  0.2365000      5.0745395E-30
  0.2370000      6.4749110E-30
  0.2375000      7.9162153E-30
  0.2380000      9.3583231E-30
  0.2385000      1.0754321E-29
  0.2390000      1.2050881E-29
  0.2395000      1.3188883E-29
  0.2400000      1.4104330E-29
  0.2405000      1.4729557E-29
  0.2410000      1.4994774E-29
  0.2415000      1.4829901E-29
  0.2420000      1.4166743E-29
  0.2425000      1.2941447E-29
  0.2430000      1.1097231E-29
  0.2435000      8.5873282E-30
  0.2440000      5.3781003E-30
  0.2445000      1.4522357E-30
  0.2450000     -3.1880674E-30
  0.2455000     -8.5180090E-30
  0.2460000     -1.4487351E-29
  0.2465000     -2.1017913E-29
  0.2470000     -2.8001595E-29
  0.2475000     -3.5299016E-29
  0.2480000     -4.2738964E-29
  0.2485000     -5.0118764E-29
  0.2490000     -5.7205693E-29
  0.2495000     -6.3739590E-29
  0.2500000     -6.9436702E-29
  0.2505000     -7.3994866E-29
  0.2510000     -7.7100043E-29
  0.2515000     -7.8434195E-29
  0.2520000     -7.7684413E-29
  0.2525000     -7.4553242E-29
  0.2530000     -6.8769993E-29
  0.2535000     -6.0102863E-29
  0.2540000     -4.8371545E-29
  0.2545000     -3.3460069E-29
  0.2550000     -1.5329402E-29
  0.2555000      5.9705024E-30
  0.2560000      3.0289693E-29
  0.2565000      5.7368783E-29
  0.2570000      8.6831515E-29
  0.2575000      1.1817979E-28
  0.2580000      1.5079173E-28
  0.2585000      1.8392310E-28
  0.2590000      2.1671257E-28
  0.2595000      2.4819113E-28
  0.2600000      2.7729575E-28
  0.2605000      3.0288775E-28
  0.2610000      3.2377535E-28
  0.2615000      3.3874086E-28
  0.2620000      3.4657191E-28
  0.2625000      3.4609630E-28
  0.2630000      3.3622018E-28
  0.2635000      3.1596821E-28
  0.2640000      2.8452579E-28
  0.2645000      2.4128135E-28
  0.2650000      1.8586809E-28
  0.2655000      1.1820382E-28
  0.2660000      3.8527624E-29
  0.2665000     -5.2568282E-29
  0.2670000     -1.5411269E-28
  0.2675000     -2.6473696E-28
  0.2680000     -3.8266533E-28
  0.2685000     -5.0571545E-28
  0.2690000     -6.3130948E-28
  0.2695000     -7.5649767E-28
  0.2700000     -8.7799391E-28
  0.2705000     -9.9222466E-28
  0.2710000     -1.0953900E-27
  0.2715000     -1.1835386E-27
  0.2720000     -1.2526527E-27
  0.2725000     -1.2987456E-27
  0.2730000     -1.3179674E-27
  0.2735000     -1.3067187E-27
  0.2740000     -1.2617691E-27
  0.2745000     -1.1803784E-27
  0.2750000     -1.0604185E-27
  0.2755000     -9.0048992E-28
  0.2760000     -7.0003398E-28
  0.2765000     -4.5943285E-28
  0.2770000     -1.8009706E-28
  0.2775000      1.3546466E-28
  0.2780000      4.8359581E-28
  0.2785000      8.5946607E-28
  0.2790000      1.2570717E-27
  0.2795000      1.6692641E-27
  0.2800000      2.0878105E-27
  0.2805000      2.5034832E-27
  0.2810000      2.9061844E-27
  0.2815000      3.2851011E-27
  0.2820000      3.6288915E-27
  0.2825000      3.9259003E-27
  0.2830000      4.1644017E-27
  0.2835000      4.3328632E-27
  0.2840000      4.4202326E-27
  0.2845000      4.4162317E-27
  0.2850000      4.3116653E-27
  0.2855000      4.0987291E-27
  0.2860000      3.7713098E-27
  0.2865000      3.3252783E-27
  0.2870000      2.7587583E-27
  0.2875000      2.0723730E-27
  0.2880000      1.2694530E-27
  0.2885000      3.5620522E-28
  0.2890000     -6.5816653E-28
  0.2895000     -1.7613949E-27
  0.2900000     -2.9381409E-27
  0.2905000     -4.1700532E-27
  0.2910000     -5.4358907E-27
  0.2915000     -6.7117172E-27
  0.2920000     -7.9711660E-27
  0.2925000     -9.1857783E-27
  0.2930000     -1.0325407E-26
  0.2935000     -1.1358691E-26
  0.2940000     -1.2253590E-26
  0.2945000     -1.2977982E-26
  0.2950000     -1.3500301E-26
  0.2955000     -1.3790230E-26
  0.2960000     -1.3819422E-26
  0.2965000     -1.3562245E-26
  0.2970000     -1.2996530E-26
  0.2975000     -1.2104342E-26
  0.2980000     -1.0872706E-26
  0.2985000     -9.2943291E-27
  0.2990000     -7.3682659E-27
  0.2995000     -5.1005231E-27
  0.3000000     -2.5045993E-27
  0.3005000      3.9808149E-28
  0.3010000      3.5778363E-27
  0.3015000      6.9965222E-27
  0.3020000      1.0607474E-26
  0.3025000      1.4355600E-26
  0.3030000      1.8177657E-26
  0.3035000      2.2002713E-26
  0.3040000      2.5752796E-26
  0.3045000      2.9343768E-26
  0.3050000      3.2686399E-26
  0.3055000      3.5687676E-26
  0.3060000      3.8252306E-26
  0.3065000      4.0284455E-26
  0.3070000      4.1689653E-26
  0.3075000      4.2376924E-26
  0.3080000      4.2261032E-26
  0.3085000      4.1264898E-26
  0.3090000      3.9322054E-26
  0.3095000      3.6379193E-26
  0.3100000      3.2398690E-26
  0.3105000      2.7361058E-26
  0.3110000      2.1267283E-26
  0.3115000      1.4140940E-26
  0.3120000      6.0300728E-27
  0.3125000     -2.9913238E-27
  0.3130000     -1.2822199E-26
  0.3135000     -2.3333894E-26
  0.3140000     -3.4370115E-26
  0.3145000     -4.5747594E-26
  0.3150000     -5.7257404E-26
  0.3155000     -6.8667057E-26
  0.3160000     -7.9723374E-26
  0.3165000     -9.0156115E-26
  0.3170000     -9.9682411E-26
  0.3175000     -1.0801199E-25
  0.3180000     -1.1485308E-25
  0.3185000     -1.1991892E-25
  0.3190000     -1.2293494E-25
  0.3195000     -1.2364618E-25
  0.3200000     -1.2182511E-25
  0.3205000     -1.1727954E-25
  0.3210000     -1.0986038E-25
  0.3215000     -9.9469142E-26
  0.3220000     -8.6064940E-26
  0.3225000     -6.9670778E-26
  0.3230000     -5.0378805E-26
  0.3235000     -2.8354400E-26
  0.3240000     -3.8389149E-27
  0.3245000      2.2849293E-26
  0.3250000      5.1315488E-26
  0.3255000      8.1091203E-26
  0.3260000      1.1163882E-25
  0.3265000      1.4235828E-25
  0.3270000      1.7259590E-25
  0.3275000      2.0165508E-25
  0.3280000      2.2880920E-25
  0.3285000      2.5331613E-25
  0.3290000      2.7443428E-25
  0.3295000      2.9144008E-25
  0.3300000      3.0364627E-25
  0.3305000      3.1042088E-25
  0.3310000      3.1120622E-25
  0.3315000      3.0553764E-25
  0.3320000      2.9306138E-25
  0.3325000      2.7355127E-25
  0.3330000      2.4692337E-25
  0.3335000      2.1324833E-25
  0.3340000      1.7276093E-25
  0.3345000      1.2586652E-25
  0.3350000      7.3143362E-26
  0.3355000      1.5341414E-26
  0.3360000     -4.6623427E-26
  0.3365000     -1.1167942E-25
  0.3370000     -1.7861350E-25
  0.3375000     -2.4609036E-25
  0.3380000     -3.1267569E-25
  0.3385000     -3.7686356E-25
  0.3390000     -4.3710714E-25
  0.3395000     -4.9185280E-25
  0.3400000     -5.3957657E-25
  0.3405000     -5.7882205E-25
  0.3410000     -6.0823971E-25
  0.3415000     -6.2662574E-25
  0.3420000     -6.3295985E-25
  0.3425000     -6.2644179E-25
  0.3430000     -6.0652364E-25
  0.3435000     -5.7293903E-25
  0.3440000     -5.2572674E-25
  0.3445000     -4.6524847E-25
  0.3450000     -3.9219978E-25
  0.3455000     -3.0761306E-25
  0.3460000     -2.1285264E-25
  0.3465000     -1.0960103E-25
  0.3470000      1.6381163E-28
  0.3475000      1.1420005E-25
  0.3480000      2.3004261E-25
  0.3485000      3.4505200E-25
  0.3490000      4.5647111E-25
  0.3495000      5.6148876E-25
  0.3500000      6.5730923E-25
  0.3505000      7.4122584E-25
  0.3510000      8.1069761E-25
  0.3515000      8.6342709E-25
  0.3520000      8.9743726E-25
  0.3525000      9.1114490E-25
  0.3530000      9.0343023E-25
  0.3535000      8.7369806E-25
  0.3540000      8.2193025E-25
  0.3545000      7.4872618E-25
  0.3550000      6.5533007E-25
  0.3555000      5.4364285E-25
  0.3560000      4.1621662E-25
  0.3565000      2.7623180E-25
  0.3570000      1.2745396E-25
  0.3575000     -2.5828061E-26
  0.3580000     -1.7888461E-25
  0.3585000     -3.2664679E-25
  0.3590000     -4.6382645E-25
  0.3595000     -5.8505337E-25
  0.3600000     -6.8502714E-25
  0.3605000     -7.5868165E-25
  0.3610000     -8.0135858E-25
  0.3615000     -8.0898583E-25
  0.3620000     -7.7825792E-25
  0.3625000     -7.0681173E-25
  0.3630000     -5.9339468E-25
  0.3635000     -4.3801788E-25
  0.3640000     -2.4209047E-25
  0.3645000     -8.5280394E-27
  0.3650000      2.5816905E-25
  0.3655000      5.5187397E-25
  0.3660000      8.6483334E-25
  0.3665000      1.1877118E-24
  0.3670000      1.5096870E-24
  0.3675000      1.8185969E-24
  0.3680000      2.1011411E-24
  0.3685000      2.3431376E-24
  0.3690000      2.5298341E-24
  0.3695000      2.6462712E-24
  0.3700000      2.6776951E-24
  0.3705000      2.6100118E-24
  0.3710000      2.4302799E-24
  0.3715000      2.1272277E-24
  0.3720000      1.6917883E-24
  0.3725000      1.1176382E-24
  0.3730000      4.0172653E-25
  0.3735000     -4.5522288E-25
  0.3740000     -1.4482485E-24
  0.3745000     -2.5677491E-24
  0.3750000     -3.7991596E-24
  0.3755000     -5.1227164E-24
  0.3760000     -6.5133413E-24
  0.3765000     -7.9406518E-24
  0.3770000     -9.3691132E-24
  0.3775000     -1.0758351E-23
  0.3780000     -1.2063628E-23
  0.3785000     -1.3236497E-23
  0.3790000     -1.4225641E-23
  0.3795000     -1.4977865E-23
  0.3800000     -1.5439300E-23
  0.3805000     -1.5556733E-23
  0.3810000     -1.5279103E-23
  0.3815000     -1.4559108E-23
  0.3820000     -1.3354926E-23
  0.3825000     -1.1631977E-23
  0.3830000     -9.3647248E-24
  0.3835000     -6.5384527E-24
  0.3840000     -3.1509690E-24
  0.3845000      7.8580486E-25
  0.3850000      5.2444218E-24
  0.3855000      1.0180738E-23
  0.3860000      1.5533018E-23
  0.3865000      2.1221398E-23
  0.3870000      2.7147730E-23
  0.3875000      3.3195901E-23
  0.3880000      3.9232618E-23
  0.3885000      4.5108726E-23
  0.3890000      5.0661070E-23
  0.3895000      5.5714942E-23
  0.3900000      6.0087043E-23
  0.3905000      6.3589062E-23
  0.3910000      6.6031709E-23
  0.3915000      6.7229263E-23
  0.3920000      6.7004514E-23
  0.3925000      6.5194034E-23
  0.3930000      6.1653727E-23
  0.3935000      5.6264425E-23
  0.3940000      4.8937548E-23
  0.3945000      3.9620580E-23
  0.3950000      2.8302285E-23
  0.3955000      1.5017438E-23
  0.3960000     -1.4902802E-25
  0.3965000     -1.7058680E-23
  0.3970000     -3.5517165E-23
  0.3975000     -5.5272902E-23
  0.3980000     -7.6016966E-23
  0.3985000     -9.7384405E-23
  0.3990000     -1.1895694E-22
  0.3995000     -1.4026731E-22
  0.4000000     -1.6080508E-22
  0.4005000     -1.8002418E-22
  0.4010000     -1.9735196E-22
  0.4015000     -2.1219975E-22
  0.4020000     -2.2397488E-22
  0.4025000     -2.3209401E-22
  0.4030000     -2.3599737E-22
  0.4035000     -2.3516395E-22
  0.4040000     -2.2912729E-22
  0.4045000     -2.1749130E-22
  0.4050000     -1.9994620E-22
  0.4055000     -1.7628387E-22
  0.4060000     -1.4641217E-22
  0.4065000     -1.1036820E-22
  0.4070000     -6.8329598E-23
  0.4075000     -2.0623740E-23
  0.4080000      3.2265572E-23
  0.4085000      8.9694425E-23
  0.4090000      1.5085838E-22
  0.4095000      2.1479564E-22
  0.4100000      2.8039408E-22
  0.4105000      3.4640225E-22
  0.4110000      4.1144435E-22
  0.4115000      4.7403967E-22
  0.4120000      5.3262561E-22
  0.4125000      5.8558460E-22
  0.4130000      6.3127512E-22
  0.4135000      6.6806492E-22
  0.4140000      6.9436769E-22
  0.4145000      7.0868159E-22
  0.4150000      7.0962873E-22
  0.4155000      6.9599590E-22
  0.4160000      6.6677462E-22
  0.4165000      6.2120012E-22
  0.4170000      5.5878832E-22
  0.4175000      4.7936969E-22
  0.4180000      3.8311884E-22
  0.4185000      2.7057937E-22
  0.4190000      1.4268236E-22
  0.4195000      7.5844899E-25
  0.4200000     -1.5345815E-22
  0.4205000     -3.1783360E-22
  0.4210000     -4.8984753E-22
  0.4215000     -6.6661528E-22
  0.4220000     -8.4491956E-22
  0.4225000     -1.0212517E-21
  0.4230000     -1.1918620E-21
  0.4235000     -1.3528201E-21
  0.4240000     -1.5000810E-21
  0.4245000     -1.6295626E-21
  0.4250000     -1.7372253E-21
  0.4255000     -1.8191606E-21
  0.4260000     -1.8716805E-21
  0.4265000     -1.8914109E-21
  0.4270000     -1.8753842E-21
  0.4275000     -1.8211304E-21
  0.4280000     -1.7267644E-21
  0.4285000     -1.5910681E-21
  0.4290000     -1.4135641E-21
  0.4295000     -1.1945793E-21
  0.4300000     -9.3529621E-22
  0.4305000     -6.3779174E-22
  0.4310000     -3.0505819E-22
  0.4315000      5.8990684E-23
  0.4320000      4.4953384E-22
  0.4325000      8.6087550E-22
  0.4330000      1.2864979E-21
  0.4335000      1.7191346E-21
  0.4340000      2.1508633E-21
  0.4345000      2.5732183E-21
  0.4350000      2.9773227E-21
  0.4355000      3.3540354E-21
  0.4360000      3.6941147E-21
  0.4365000      3.9883951E-21
  0.4370000      4.2279721E-21
  0.4375000      4.4043963E-21
  0.4380000      4.5098699E-21
  0.4385000      4.5374431E-21
  0.4390000      4.4812061E-21
  0.4395000      4.3364738E-21
  0.4400000      4.0999558E-21
  0.4405000      3.7699136E-21
  0.4410000      3.3462927E-21
  0.4415000      2.8308336E-21
  0.4420000      2.2271523E-21
  0.4425000      1.5407899E-21
  0.4430000      7.7922827E-22
  0.4435000     -4.8132840E-23
  0.4440000     -9.3003606E-22
  0.4445000     -1.8534670E-21
  0.4450000     -2.8037947E-21
  0.4455000     -3.7649525E-21
  0.4460000     -4.7196571E-21
  0.4465000     -5.6496642E-21
  0.4470000     -6.5360585E-21
  0.4475000     -7.3595729E-21
  0.4480000     -8.1009344E-21
  0.4485000     -8.7412311E-21
  0.4490000     -9.2622895E-21
  0.4495000     -9.6470650E-21
  0.4500000     -9.8800318E-21
  0.4505000     -9.9475658E-21
  0.4510000     -9.8383093E-21
  0.4515000     -9.5435228E-21
  0.4520000     -9.0573983E-21
  0.4525000     -8.3773379E-21
  0.4530000     -7.5041906E-21
  0.4535000     -6.4424300E-21
  0.4540000     -5.2002797E-21
  0.4545000     -3.7897720E-21
  0.4550000     -2.2267353E-21
  0.4555000     -5.3071699E-22
  0.4560000      1.2751749E-21
  0.4565000      3.1645024E-21
  0.4570000      5.1078051E-21
  0.4575000      7.0729791E-21
  0.4580000      9.0257255E-21
  0.4585000      1.0930070E-20
  0.4590000      1.2748931E-20
  0.4595000      1.4444748E-20
  0.4600000      1.5980149E-20
  0.4605000      1.7318645E-20
  0.4610000      1.8425353E-20
  0.4615000      1.9267723E-20
  0.4620000      1.9816251E-20
  0.4625000      2.0045191E-20
  0.4630000      1.9933216E-20
  0.4635000      1.9464041E-20
  0.4640000      1.8626976E-20
  0.4645000      1.7417419E-20
  0.4650000      1.5837240E-20
  0.4655000      1.3895085E-20
  0.4660000      1.1606558E-20
  0.4665000      8.9942902E-21
  0.4670000      6.0878760E-21
  0.4675000      2.9236860E-21
  0.4680000     -4.5545885E-22
  0.4685000     -4.0007439E-21
  0.4690000     -7.6579549E-21
  0.4695000     -1.1368194E-20
  0.4700000     -1.5068719E-20
  0.4705000     -1.8693892E-20
  0.4710000     -2.2176232E-20
  0.4715000     -2.5447533E-20
  0.4720000     -2.8440075E-20
  0.4725000     -3.1087855E-20
  0.4730000     -3.3327869E-20
  0.4735000     -3.5101374E-20
  0.4740000     -3.6355153E-20
  0.4745000     -3.7042721E-20
  0.4750000     -3.7125478E-20
  0.4755000     -3.6573755E-20
  0.4760000     -3.5367755E-20
  0.4765000     -3.3498343E-20
  0.4770000     -3.0967710E-20
  0.4775000     -2.7789824E-20
  0.4780000     -2.3990705E-20
  0.4785000     -1.9608488E-20
  0.4790000     -1.4693282E-20
  0.4795000     -9.3067860E-21
  0.4800000     -3.5216928E-21
  0.4805000      2.5791405E-21
  0.4810000      8.9037325E-21
  0.4815000      1.5352231E-20
  0.4820000      2.1818362E-20
  0.4825000      2.8191049E-20
  0.4830000      3.4356204E-20