  0.0000000E+00  0.0000000E+00
  5.0000002E-04  0.0000000E+00
  1.0000000E-03  0.0000000E+00
  1.5000000E-03  0.0000000E+00
  2.0000001E-03  0.0000000E+00
  2.4999999E-03  0.0000000E+00
  3.0000000E-03  0.0000000E+00
  3.5000001E-03  0.0000000E+00
  4.0000002E-03  0.0000000E+00
  4.4999998E-03  0.0000000E+00
  4.9999999E-03  0.0000000E+00
  5.5000000E-03  0.0000000E+00
  6.0000001E-03  0.0000000E+00
  6.5000001E-03  0.0000000E+00
  7.0000002E-03  0.0000000E+00
  7.4999998E-03  0.0000000E+00
  8.0000004E-03  0.0000000E+00
  8.5000005E-03  0.0000000E+00
  8.9999996E-03  0.0000000E+00
  9.4999997E-03  0.0000000E+00
  9.9999998E-03  0.0000000E+00
  1.0500000E-02  0.0000000E+00
  1.1000000E-02  0.0000000E+00
  1.1500000E-02  0.0000000E+00
  1.2000000E-02  0.0000000E+00
  1.2500000E-02  0.0000000E+00
  1.3000000E-02  0.0000000E+00
  1.3500000E-02  0.0000000E+00
  1.4000000E-02  0.0000000E+00
  1.4500000E-02  0.0000000E+00
  1.5000000E-02  0.0000000E+00
  1.5500000E-02  0.0000000E+00
  1.6000001E-02  0.0000000E+00
  1.6500000E-02  0.0000000E+00
  1.7000001E-02  0.0000000E+00
  1.7500000E-02  0.0000000E+00
  1.7999999E-02  0.0000000E+00
  1.8500000E-02  0.0000000E+00
  1.8999999E-02  0.0000000E+00
  1.9500000E-02  0.0000000E+00
  2.0000000E-02  0.0000000E+00
  2.0500001E-02  0.0000000E+00
  2.1000000E-02  0.0000000E+00
  2.1500001E-02  0.0000000E+00
  2.2000000E-02  0.0000000E+00
  2.2500001E-02  0.0000000E+00
  2.3000000E-02  0.0000000E+00
  2.3499999E-02  0.0000000E+00
  2.4000000E-02  0.0000000E+00
  2.4499999E-02  0.0000000E+00
  2.5000000E-02  0.0000000E+00
  2.5500000E-02  0.0000000E+00
  2.6000001E-02  0.0000000E+00
  2.6500000E-02  0.0000000E+00
  2.7000001E-02  0.0000000E+00
  2.7500000E-02  0.0000000E+00
  2.8000001E-02  0.0000000E+00
  2.8500000E-02  0.0000000E+00
  2.8999999E-02  0.0000000E+00
  2.9500000E-02  0.0000000E+00
  2.9999999E-02  0.0000000E+00
  3.0500000E-02  0.0000000E+00
  3.0999999E-02  0.0000000E+00
  3.1500001E-02  0.0000000E+00
  3.2000002E-02  0.0000000E+00
  3.2499999E-02  0.0000000E+00
  3.3000000E-02  0.0000000E+00
  3.3500001E-02  0.0000000E+00
  3.4000002E-02  0.0000000E+00
  3.4499999E-02  0.0000000E+00
  3.5000000E-02  0.0000000E+00
  3.5500001E-02  0.0000000E+00
  3.5999998E-02  0.0000000E+00
  3.6499999E-02  0.0000000E+00
  3.7000000E-02  0.0000000E+00
  3.7500001E-02  0.0000000E+00
  3.7999999E-02  0.0000000E+00
  3.8500000E-02  0.0000000E+00
  3.9000001E-02  0.0000000E+00
  3.9500002E-02  0.0000000E+00
  3.9999999E-02  0.0000000E+00
  4.0500000E-02  0.0000000E+00
  4.1000001E-02  0.0000000E+00
  4.1499998E-02  0.0000000E+00
  4.1999999E-02  0.0000000E+00
  4.2500000E-02  0.0000000E+00
  4.3000001E-02  0.0000000E+00
  4.3499999E-02  0.0000000E+00
  4.4000000E-02  0.0000000E+00
  4.4500001E-02  0.0000000E+00
  4.5000002E-02  0.0000000E+00
  4.5499999E-02  0.0000000E+00
  4.6000000E-02  0.0000000E+00
  4.6500001E-02  0.0000000E+00
  4.6999998E-02  0.0000000E+00
  4.7499999E-02  0.0000000E+00
  4.8000000E-02  0.0000000E+00
  4.8500001E-02  0.0000000E+00
  4.8999999E-02  0.0000000E+00
  4.9500000E-02  0.0000000E+00
  5.0000001E-02  0.0000000E+00
  5.0500002E-02  0.0000000E+00
  5.0999999E-02  0.0000000E+00
  5.1500000E-02  0.0000000E+00
  5.2000001E-02  0.0000000E+00
  5.2499998E-02  0.0000000E+00
  5.2999999E-02  0.0000000E+00
  5.3500000E-02  0.0000000E+00
  5.4000001E-02  0.0000000E+00
  5.4499999E-02  0.0000000E+00
  5.5000000E-02  0.0000000E+00
  5.5500001E-02  0.0000000E+00
  5.6000002E-02  0.0000000E+00
  5.6499999E-02  0.0000000E+00
  5.7000000E-02  0.0000000E+00
  5.7500001E-02  0.0000000E+00
  5.7999998E-02  0.0000000E+00
  5.8499999E-02  0.0000000E+00
  5.9000000E-02  0.0000000E+00
  5.9500001E-02  0.0000000E+00
  5.9999999E-02  0.0000000E+00
  6.0500000E-02  0.0000000E+00
  6.1000001E-02  0.0000000E+00
  6.1500002E-02  0.0000000E+00
  6.1999999E-02  0.0000000E+00
  6.2500000E-02  0.0000000E+00
  6.3000001E-02  0.0000000E+00
  6.3500002E-02  0.0000000E+00
  6.4000003E-02  0.0000000E+00
  6.4499997E-02  0.0000000E+00
  6.4999998E-02  0.0000000E+00
  6.5499999E-02  0.0000000E+00
  6.6000000E-02  0.0000000E+00
  6.6500001E-02  0.0000000E+00
  6.7000002E-02  0.0000000E+00
  6.7500003E-02  0.0000000E+00
  6.8000004E-02  0.0000000E+00
  6.8499997E-02  0.0000000E+00
  6.8999998E-02  0.0000000E+00
  6.9499999E-02  0.0000000E+00
  7.0000000E-02  0.0000000E+00
  7.0500001E-02  0.0000000E+00
  7.1000002E-02  0.0000000E+00
  7.1500003E-02  0.0000000E+00
  7.1999997E-02  0.0000000E+00
  7.2499998E-02  0.0000000E+00
  7.2999999E-02  0.0000000E+00
  7.3500000E-02  0.0000000E+00
  7.4000001E-02  0.0000000E+00
  7.4500002E-02  0.0000000E+00
  7.5000003E-02  0.0000000E+00
  7.5499997E-02  0.0000000E+00
  7.5999998E-02  0.0000000E+00
  7.6499999E-02  0.0000000E+00
  7.7000000E-02  0.0000000E+00
  7.7500001E-02  0.0000000E+00
  7.8000002E-02  0.0000000E+00
  7.8500003E-02  0.0000000E+00
  7.9000004E-02  0.0000000E+00
  7.9499997E-02  0.0000000E+00
  7.9999998E-02  0.0000000E+00
  8.0499999E-02  0.0000000E+00
  8.1000000E-02  0.0000000E+00
  8.1500001E-02  0.0000000E+00
  8.2000002E-02  0.0000000E+00
  8.2500003E-02  0.0000000E+00
  8.2999997E-02  0.0000000E+00
  8.3499998E-02  0.0000000E+00
  8.3999999E-02  0.0000000E+00
  8.4500000E-02  0.0000000E+00
  8.5000001E-02  0.0000000E+00
  8.5500002E-02  0.0000000E+00
  8.6000003E-02  0.0000000E+00
  8.6499996E-02  0.0000000E+00
  8.6999997E-02  0.0000000E+00
  8.7499999E-02  0.0000000E+00
  8.8000000E-02  0.0000000E+00
  8.8500001E-02  0.0000000E+00
  8.9000002E-02  0.0000000E+00
  8.9500003E-02  0.0000000E+00
  9.0000004E-02  0.0000000E+00
  9.0499997E-02  0.0000000E+00
  9.0999998E-02  0.0000000E+00
  9.1499999E-02  0.0000000E+00
  9.2000000E-02  0.0000000E+00
  9.2500001E-02  0.0000000E+00
  9.3000002E-02  0.0000000E+00
  9.3500003E-02  0.0000000E+00
  9.3999997E-02  0.0000000E+00
  9.4499998E-02  0.0000000E+00
  9.4999999E-02  0.0000000E+00
  9.5500000E-02  0.0000000E+00
  9.6000001E-02  0.0000000E+00
  9.6500002E-02  0.0000000E+00
  9.7000003E-02  0.0000000E+00
  9.7499996E-02  0.0000000E+00
  9.7999997E-02  0.0000000E+00
  9.8499998E-02  0.0000000E+00
  9.8999999E-02  0.0000000E+00
  9.9500000E-02  0.0000000E+00
  0.1000000      0.0000000E+00
  0.1005000     -1.4125231E-38
  0.1010000     -1.6852836E-38
  0.1015000     -1.8220596E-38
  0.1020000     -1.6003358E-38
  0.1025000      0.0000000E+00
  0.1030000      0.0000000E+00
  0.1035000      1.2903302E-38
  0.1040000      3.0496164E-38
  0.1045000      3.6578780E-38
  0.1050000      3.0071722E-38
  0.1055000      2.5956963E-38
  0.1060000      2.1294349E-38
  0.1065000      0.0000000E+00
  0.1070000     -3.3732791E-38
  0.1075000     -7.1633172E-38
  0.1080000     -1.1826471E-37
  0.1085000     -1.5342047E-37
  0.1090000     -1.7526705E-37
  0.1095000     -1.7848867E-37
  0.1100000     -1.6507094E-37
  0.1105000     -1.5242615E-37
  0.1110000     -1.4300784E-37
  0.1115000     -1.2132774E-37
  0.1120000     -1.4273774E-37
  0.1125000     -1.7089102E-37
  0.1130000     -2.0325487E-37
  0.1135000     -2.9896591E-37
  0.1140000     -4.5475525E-37
  0.1145000     -8.0453778E-37
  0.1150000     -1.2682673E-36
  0.1155000     -1.6659770E-36
  0.1160000     -2.0168519E-36
  0.1165000     -2.2019526E-36
  0.1170000     -2.2232407E-36
  0.1175000     -2.0773756E-36
  0.1180000     -1.8067839E-36
  0.1185000     -1.7575163E-36
  0.1190000     -1.6555759E-36
  0.1195000     -1.2190481E-36
  0.1200000     -6.5514586E-37
  0.1205000      2.2297149E-38
  0.1210000      5.6790134E-37
  0.1215000      9.5494396E-37
  0.1220000      1.6270902E-36
  0.1225000      1.9081581E-36
  0.1230000      1.4243879E-36
  0.1235000      6.4038273E-37
  0.1240000     -4.6772630E-37
  0.1245000     -1.8427729E-36
  0.1250000     -3.3622310E-36
  0.1255000     -4.6050996E-36
  0.1260000     -5.5715943E-36
  0.1265000     -6.5713463E-36
  0.1270000     -7.4754632E-36
  0.1275000     -7.8844468E-36
  0.1280000     -7.5196519E-36
  0.1285000     -6.8821514E-36
  0.1290000     -6.4522249E-36
  0.1295000     -6.4292919E-36
  0.1300000     -6.9329249E-36
  0.1305000     -7.8812699E-36
  0.1310000     -8.8978982E-36
  0.1315000     -1.0067383E-35
  0.1320000     -1.1182642E-35
  0.1325000     -1.1525285E-35
  0.1330000     -1.1390766E-35
  0.1335000     -1.0598710E-35
  0.1340000     -8.6505529E-36
  0.1345000     -4.7701193E-36
  0.1350000      2.2267952E-36
  0.1355000      1.2748127E-35
  0.1360000      2.6614515E-35
  0.1365000      4.3362638E-35
  0.1370000      6.2007861E-35
  0.1375000      8.1041278E-35
  0.1380000      9.8970517E-35
  0.1385000      1.1391882E-34
  0.1390000      1.2336205E-34
  0.1395000      1.2462708E-34
  0.1400000      1.1519151E-34
  0.1405000      9.3417110E-35
  0.1410000      5.8726596E-35
  0.1415000      1.1294554E-35
  0.1420000     -4.7732931E-35
  0.1425000     -1.1603548E-34
  0.1430000     -1.9012484E-34
  0.1435000     -2.6546235E-34
  0.1440000     -3.3655482E-34
  0.1445000     -3.9722576E-34
  0.1450000     -4.4090575E-34
  0.1455000     -4.6121104E-34
  0.1460000     -4.5226245E-34
  0.1465000     -4.0915386E-34
  0.1470000     -3.2867591E-34
  0.1475000     -2.0977711E-34
  0.1480000     -5.4169208E-35
  0.1485000      1.3343652E-34
  0.1490000      3.4519843E-34
  0.1495000      5.6990335E-34
  0.1500000      7.9333563E-34
  0.1505000      9.9889625E-34
  0.1510000      1.1682946E-33
  0.1515000      1.2826426E-33
  0.1520000      1.3237733E-33
  0.1525000      1.2756897E-33
  0.1530000      1.1261364E-33
  0.1535000      8.6809688E-34
  0.1540000      5.0116100E-34
  0.1545000      3.2632208E-35
  0.1550000     -5.2202864E-34
  0.1555000     -1.1382828E-33
  0.1560000     -1.7827964E-33
  0.1565000     -2.4149824E-33
  0.1570000     -2.9882218E-33
  0.1575000     -3.4520302E-33
  0.1580000     -3.7548467E-33
  0.1585000     -3.8472439E-33
  0.1590000     -3.6854940E-33
  0.1595000     -3.2353454E-33
  0.1600000     -2.4757072E-33
  0.1605000     -1.4020685E-33
  0.1610000     -2.9383697E-35
  0.1615000      1.6058349E-33
  0.1620000      3.4444075E-33
  0.1625000      5.4046020E-33
  0.1630000      7.3837304E-33
  0.1635000      9.2610749E-33
  0.1640000      1.0902335E-32
  0.1645000      1.2165661E-32
  0.1650000      1.2908947E-32
  0.1655000      1.2998287E-32
  0.1660000      1.2317240E-32
  0.1665000      1.0776476E-32
  0.1670000      8.3233802E-33
  0.1675000      4.9509805E-33
  0.1680000      7.0550131E-34
  0.1685000     -4.3081332E-33
  0.1690000     -9.9234807E-33
  0.1695000     -1.5913112E-32
  0.1700000     -2.1993019E-32
  0.1705000     -2.7831266E-32
  0.1710000     -3.3061014E-32
  0.1715000     -3.7297754E-32
  0.1720000     -4.0160324E-32
  0.1725000     -4.1294864E-32
  0.1730000     -4.0400483E-32
  0.1735000     -3.7255225E-32
  0.1740000     -3.1740493E-32
  0.1745000     -2.3861962E-32
  0.1750000     -1.3765005E-32
  0.1755000     -1.7427247E-33
  0.1760000      1.1765156E-32
  0.1765000      2.6183669E-32
  0.1770000      4.0824804E-32
  0.1775000      5.4920324E-32
  0.1780000      6.7664147E-32
  0.1785000      7.8262198E-32
  0.1790000      8.5986806E-32
  0.1795000      9.0232010E-32
  0.1800000      9.0565398E-32
  0.1805000      8.6772060E-32
  0.1810000      7.8886203E-32
  0.1815000      6.7206550E-32
  0.1820000      5.2292554E-32
  0.1825000      3.4939712E-32
  0.1830000      1.6134146E-32
  0.1835000     -3.0119034E-33
  0.1840000     -2.1339973E-32
  0.1845000     -3.7735391E-32
  0.1850000     -5.1220356E-32
  0.1855000     -6.1042375E-32
  0.1860000     -6.6750147E-32
  0.1865000     -6.8249220E-32
  0.1870000     -6.5830928E-32
  0.1875000     -6.0169941E-32
  0.1880000     -5.2289051E-32
  0.1885000     -4.3491613E-32
  0.1890000     -3.5266188E-32
  0.1895000     -2.9170559E-32
  0.1900000     -2.6704631E-32
  0.1905000     -2.9183795E-32
  0.1910000     -3.7624262E-32
  0.1915000     -5.2651961E-32
  0.1920000     -7.4444533E-32
  0.1925000     -1.0271138E-31
  0.1930000     -1.3671400E-31
  0.1935000     -1.7532365E-31
  0.1940000     -2.1710711E-31
  0.1945000     -2.6042814E-31
  0.1950000     -3.0354838E-31
  0.1955000     -3.4470916E-31
  0.1960000     -3.8217738E-31
  0.1965000     -4.1424012E-31
  0.1970000     -4.3914066E-31
  0.1975000     -4.5495398E-31
  0.1980000     -4.5941136E-31
  0.1985000     -4.4969491E-31
  0.1990000     -4.2223080E-31
  0.1995000     -3.7252385E-31
  0.2000000     -2.9507722E-31
  0.2005000     -1.8344690E-31
  0.2010000     -3.0475123E-32
  0.2015000      1.7126069E-31
  0.2020000      4.2876340E-31
  0.2025000      7.4769801E-31
  0.2030000      1.1312666E-30
  0.2035000      1.5789344E-30
  0.2040000      2.0850934E-30
  0.2045000      2.6377796E-30
  0.2050000      3.2175823E-30
  0.2055000      3.7968964E-30
  0.2060000      4.3396758E-30
  0.2065000      4.8018309E-30
  0.2070000      5.1323911E-30
  0.2075000      5.2755084E-30
  0.2080000      5.1733273E-30
  0.2085000      4.7696712E-30
  0.2090000      4.0144317E-30
  0.2095000      2.8684567E-30
  0.2100000      1.3086669E-30
  0.2105000     -6.6693943E-31
  0.2110000     -3.0347830E-30
  0.2115000     -5.7421139E-30
  0.2120000     -8.7047437E-30
  0.2125000     -1.1806485E-29
  0.2130000     -1.4900606E-29
  0.2135000     -1.7813520E-29
  0.2140000     -2.0350796E-29
  0.2145000     -2.2305431E-29
  0.2150000     -2.3468179E-29
  0.2155000     -2.3639541E-29
  0.2160000     -2.2642898E-29
  0.2165000     -2.0338096E-29
  0.2170000     -1.6634738E-29
  0.2175000     -1.1504323E-29
  0.2180000     -4.9904050E-30
  0.2185000      2.7840250E-30
  0.2190000      1.1612661E-29
  0.2195000      2.1206072E-29
  0.2200000      3.1196304E-29
  0.2205000      4.1146064E-29
  0.2210000      5.0562378E-29
  0.2215000      5.8914396E-29
  0.2220000      6.5654723E-29
  0.2225000      7.0243492E-29
  0.2230000      7.2174213E-29
  0.2235000      7.1000244E-29
  0.2240000      6.6360793E-29
  0.2245000      5.8005224E-29
  0.2250000      4.5814536E-29
  0.2255000      2.9819074E-29
  0.2260000      1.0211548E-29
  0.2265000     -1.2645269E-29
  0.2270000     -3.8216592E-29
  0.2275000     -6.5799722E-29
  0.2280000     -9.4534169E-29
  0.2285000     -1.2341772E-28
  0.2290000     -1.5132798E-28
  0.2295000     -1.7704927E-28
  0.2300000     -1.9930393E-28
  0.2305000     -2.1678795E-28
  0.2310000     -2.2820994E-28
  0.2315000     -2.3233285E-28
  0.2320000     -2.2801800E-28
  0.2325000     -2.1427054E-28
  0.2330000     -1.9028525E-28
  0.2335000     -1.5549267E-28
  0.2340000     -1.0960358E-28
  0.2345000     -5.2651223E-29
  0.2350000      1.4969989E-29
  0.2355000      9.2471251E-29
  0.2360000      1.7864269E-28
  0.2365000      2.7183541E-28
  0.2370000      3.6995393E-28
  0.2375000      4.7046082E-28
  0.2380000      5.7039535E-28
  0.2385000      6.6640729E-28
  0.2390000      7.5480743E-28
  0.2395000      8.3163465E-28
  0.2400000      8.9274056E-28
  0.2405000      9.3389123E-28
  0.2410000      9.5088246E-28
  0.2415000      9.3967075E-28
  0.2420000      8.9651336E-28
  0.2425000      8.1811723E-28
  0.2430000      7.0179231E-28
  0.2435000      5.4560406E-28
  0.2440000      3.4852218E-28
  0.2445000      1.1056255E-28
  0.2450000     -1.6708457E-28
  0.2455000     -4.8194192E-28
  0.2460000     -8.3015294E-28
  0.2465000     -1.2064141E-27
  0.2470000     -1.6039333E-27
  0.2475000     -2.0144181E-27
  0.2480000     -2.4280975E-27
  0.2485000     -2.8337804E-27
  0.2490000     -3.2189531E-27
  0.2495000     -3.5699168E-27
  0.2500000     -3.8719739E-27
  0.2505000     -4.1096583E-27
  0.2510000     -4.2670211E-27
  0.2515000     -4.3279675E-27
  0.2520000     -4.2766492E-27
  0.2525000     -4.0979144E-27
  0.2530000     -3.7778098E-27
  0.2535000     -3.3041389E-27
  0.2540000     -2.6670590E-27
  0.2545000     -1.8597171E-27
  0.2550000     -8.7890824E-28
  0.2555000      2.7426174E-28
  0.2560000      1.5937312E-27
  0.2565000      3.0678806E-27
  0.2570000      4.6789948E-27
  0.2575000      6.4028304E-27
  0.2580000      8.2083157E-27
  0.2585000      1.0057417E-26
  0.2590000      1.1905201E-26
  0.2595000      1.3700124E-26
  0.2600000      1.5384576E-26
  0.2605000      1.6895689E-26
  0.2610000      1.8166430E-26
  0.2615000      1.9126976E-26
  0.2620000      1.9706366E-26
  0.2625000      1.9834419E-26
  0.2630000      1.9443867E-26
  0.2635000      1.8472693E-26
  0.2640000      1.6866610E-26
  0.2645000      1.4581633E-26
  0.2650000      1.1586659E-26
  0.2655000      7.8660071E-27
  0.2660000      3.4218232E-27
  0.2665000     -1.7237179E-27
  0.2670000     -7.5264934E-27
  0.2675000     -1.3918904E-26
  0.2680000     -2.0808769E-26
  0.2685000     -2.8078764E-26
  0.2690000     -3.5586465E-26
  0.2695000     -4.3165039E-26
  0.2700000     -5.0624680E-26
  0.2705000     -5.7754781E-26
  0.2710000     -6.4326935E-26
  0.2715000     -7.0098784E-26
  0.2720000     -7.4818662E-26
  0.2725000     -7.8231083E-26
  0.2730000     -8.0083039E-26
  0.2735000     -8.0130950E-26
  0.2740000     -7.8148345E-26
  0.2745000     -7.3933973E-26
  0.2750000     -6.7320336E-26
  0.2755000     -5.8182325E-26
  0.2760000     -4.6445850E-26
  0.2765000     -3.2096119E-26
  0.2770000     -1.5185303E-26
  0.2775000      4.1606997E-27
  0.2780000      2.5736806E-26
  0.2785000      4.9254854E-26
  0.2790000      7.4341648E-26
  0.2795000      1.0053927E-25
  0.2800000      1.2730788E-25
  0.2805000      1.5403127E-25
  0.2810000      1.8002540E-25
  0.2815000      2.0454983E-25
  0.2820000      2.2682214E-25
  0.2825000      2.4603514E-25
  0.2830000      2.6137673E-25
  0.2835000      2.7205190E-25
  0.2840000      2.7730647E-25
  0.2845000      2.7645201E-25
  0.2850000      2.6889098E-25
  0.2855000      2.5414165E-25
  0.2860000      2.3186175E-25
  0.2865000      2.0187017E-25
  0.2870000      1.6416539E-25
  0.2875000      1.1894038E-25
  0.2880000      6.6592914E-26
  0.2885000      7.7305310E-27
  0.2890000     -5.6830150E-26
  0.2895000     -1.2607004E-25
  0.2900000     -1.9878062E-25
  0.2905000     -2.7358290E-25
  0.2910000     -3.4895240E-25
  0.2915000     -4.2324927E-25
  0.2920000     -4.9475300E-25
  0.2925000     -5.6170081E-25
  0.2930000     -6.2232842E-25
  0.2935000     -6.7491241E-25
  0.2940000     -7.1781215E-25
  0.2945000     -7.4951065E-25
  0.2950000     -7.6865221E-25
  0.2955000     -7.7407686E-25
  0.2960000     -7.6484916E-25
  0.2965000     -7.4028078E-25
  0.2970000     -6.9994681E-25
  0.2975000     -6.4369507E-25
  0.2980000     -5.7164786E-25
  0.2985000     -4.8419701E-25
  0.2990000     -3.8199241E-25
  0.2995000     -2.6592531E-25
  0.3000000     -1.3710698E-25
  0.3005000      3.1555445E-27
  0.3010000      1.5338525E-25
  0.3015000      3.1196096E-25
  0.3020000      4.7714079E-25
  0.3025000      6.4708268E-25
  0.3030000      8.1986043E-25
  0.3035000      9.9347358E-25
  0.3040000      1.1658508E-24
  0.3045000      1.3348462E-24
  0.3050000      1.4982296E-24
  0.3055000      1.6536698E-24
  0.3060000      1.7987135E-24
  0.3065000      1.9307611E-24
  0.3070000      2.0470412E-24
  0.3075000      2.1445880E-24
  0.3080000      2.2202218E-24
  0.3085000      2.2705403E-24
  0.3090000      2.2919190E-24
  0.3095000      2.2805290E-24
  0.3100000      2.2323712E-24
  0.3105000      2.1433339E-24
  0.3110000      2.0092731E-24
  0.3115000      1.8261179E-24
  0.3120000      1.5900024E-24
  0.3125000      1.2974242E-24
  0.3130000      9.4542741E-25
  0.3135000      5.3180688E-25
  0.3140000      5.5331598E-26
  0.3145000     -4.8402060E-25
  0.3150000     -1.0848200E-24
  0.3155000     -1.7439455E-24
  0.3160000     -2.4563557E-24
  0.3165000     -3.2148805E-24
  0.3170000     -4.0100435E-24
  0.3175000     -4.8299299E-24
  0.3180000     -5.6601082E-24
  0.3185000     -6.4836139E-24
  0.3190000     -7.2810158E-24
  0.3195000     -8.0305661E-24
  0.3200000     -8.7084438E-24
  0.3205000     -9.2890975E-24
  0.3210000     -9.7456957E-24
  0.3215000     -1.0050682E-23
  0.3220000     -1.0176429E-23
  0.3225000     -1.0095990E-23
  0.3230000     -9.7839381E-24
  0.3235000     -9.2172772E-24
  0.3240000     -8.3763996E-24
  0.3245000     -7.2460826E-24
  0.3250000     -5.8164872E-24
  0.3255000     -4.0841238E-24
  0.3260000     -2.0527703E-24
  0.3265000      2.6571291E-25
  0.3270000      2.8506940E-24
  0.3275000      5.6722471E-24
  0.3280000      8.6908333E-24
  0.3285000      1.1857221E-23
  0.3290000      1.5112669E-23
  0.3295000      1.8389400E-23
  0.3300000      2.1611392E-23
  0.3305000      2.4695488E-23
  0.3310000      2.7552835E-23
  0.3315000      3.0090632E-23
  0.3320000      3.2214186E-23
  0.3325000      3.3829246E-23
  0.3330000      3.4844542E-23
  0.3335000      3.5174544E-23
  0.3340000      3.4742299E-23
  0.3345000      3.3482330E-23
  0.3350000      3.1343492E-23
  0.3355000      2.8291717E-23
  0.3360000      2.4312518E-23
  0.3365000      1.9413193E-23
  0.3370000      1.3624631E-23
  0.3375000      7.0026165E-24
  0.3380000     -3.7144751E-25
  0.3385000     -8.3904516E-24
  0.3390000     -1.6922210E-23
  0.3395000     -2.5810827E-23
  0.3400000     -3.4878835E-23
  0.3405000     -4.3930099E-23
  0.3410000     -5.2753451E-23
  0.3415000     -6.1127046E-23
  0.3420000     -6.8823305E-23
  0.3425000     -7.5614407E-23
  0.3430000     -8.1278144E-23
  0.3435000     -8.5604062E-23
  0.3440000     -8.8399684E-23
  0.3445000     -8.9496655E-23
  0.3450000     -8.8756602E-23
  0.3455000     -8.6076596E-23
  0.3460000     -8.1393886E-23
  0.3465000     -7.4689893E-23
  0.3470000     -6.5993188E-23
  0.3475000     -5.5381330E-23
  0.3480000     -4.2981481E-23
  0.3485000     -2.8969655E-23
  0.3490000     -1.3568611E-23
  0.3495000      2.9556510E-24
  0.3500000      2.0298778E-23
  0.3505000      3.8124231E-23
  0.3510000      5.6070611E-23
  0.3515000      7.3759990E-23
  0.3520000      9.0807003E-23
  0.3525000      1.0682864E-22
  0.3530000      1.2145412E-22
  0.3535000      1.3433495E-22
  0.3540000      1.4515456E-22
  0.3545000      1.5363736E-22
  0.3550000      1.5955694E-22
  0.3555000      1.6274293E-22
  0.3560000      1.6308652E-22
  0.3565000      1.6054414E-22
  0.3570000      1.5513941E-22
  0.3575000      1.4696286E-22
  0.3580000      1.3616976E-22
  0.3585000      1.2297575E-22
  0.3590000      1.0765048E-22
  0.3595000      9.0509312E-23
  0.3600000      7.1903409E-23
  0.3605000      5.2208408E-23
  0.3610000      3.1812021E-23
  0.3615000      1.1100994E-23
  0.3620000     -9.5521479E-24
  0.3625000     -2.9802105E-23
  0.3630000     -4.9343067E-23
  0.3635000     -6.7919674E-23
  0.3640000     -8.5336335E-23
  0.3645000     -1.0146434E-22
  0.3650000     -1.1624638E-22
  0.3655000     -1.2969816E-22
  0.3660000     -1.4190695E-22
  0.3665000     -1.5302675E-22
  0.3670000     -1.6327007E-22
  0.3675000     -1.7289669E-22
  0.3680000     -1.8219909E-22
  0.3685000     -1.9148521E-22
  0.3690000     -2.0105910E-22
  0.3695000     -2.1119967E-22
  0.3700000     -2.2213851E-22
  0.3705000     -2.3403741E-22
  0.3710000     -2.4696670E-22
  0.3715000     -2.6088473E-22
  0.3720000     -2.7561995E-22
  0.3725000     -2.9085658E-22
  0.3730000     -3.0612418E-22
  0.3735000     -3.2079229E-22
  0.3740000     -3.3407113E-22
  0.3745000     -3.4501848E-22
  0.3750000     -3.5255305E-22
  0.3755000     -3.5547526E-22
  0.3760000     -3.5249504E-22
  0.3765000     -3.4226587E-22
  0.3770000     -3.2342580E-22
  0.3775000     -2.9464369E-22
  0.3780000     -2.5467007E-22
  0.3785000     -2.0239179E-22
  0.3790000     -1.3688856E-22
  0.3795000     -5.7489797E-23
  0.3800000      3.6169664E-23
  0.3805000      1.4409658E-22
  0.3810000      2.6589199E-22
  0.3815000      4.0071054E-22
  0.3820000      5.4722834E-22
  0.3825000      7.0362167E-22
  0.3830000      8.6755767E-22
  0.3835000      1.0361981E-21
  0.3840000      1.2062183E-21
  0.3845000      1.3738408E-21
  0.3850000      1.5348837E-21
  0.3855000      1.6848263E-21
  0.3860000      1.8188874E-21
  0.3865000      1.9321192E-21
  0.3870000      2.0195132E-21
  0.3875000      2.0761153E-21
  0.3880000      2.0971523E-21
  0.3885000      2.0781608E-21
  0.3890000      2.0151222E-21
  0.3895000      1.9045937E-21
  0.3900000      1.7438399E-21
  0.3905000      1.5309548E-21
  0.3910000      1.2649739E-21
  0.3915000      9.4597352E-22
  0.3920000      5.7515225E-22
  0.3925000      1.5489530E-22
  0.3930000     -3.1118485E-22
  0.3935000     -8.1823203E-22
  0.3940000     -1.3601532E-21
  0.3945000     -1.9296538E-21
  0.3950000     -2.5182979E-21
  0.3955000     -3.1165950E-21
  0.3960000     -3.7141153E-21
  0.3965000     -4.2996230E-21
  0.3970000     -4.8612391E-21
  0.3975000     -5.3866183E-21
  0.3980000     -5.8631467E-21
  0.3985000     -6.2781494E-21
  0.3990000     -6.6191098E-21
  0.3995000     -6.8738984E-21
  0.4000000     -7.0310005E-21
  0.4005000     -7.0797403E-21
  0.4010000     -7.0105067E-21
  0.4015000     -6.8149642E-21
  0.4020000     -6.4862572E-21
  0.4025000     -6.0191970E-21
  0.4030000     -5.4104341E-21
  0.4035000     -4.6586065E-21
  0.4040000     -3.7644763E-21
  0.4045000     -2.7310337E-21
  0.4050000     -1.5635844E-21
  0.4055000     -2.6981709E-22
  0.4060000      1.1401613E-21
  0.4065000      2.6538083E-21
  0.4070000      4.2561524E-21
  0.4075000      5.9298256E-21
  0.4080000      7.6551163E-21
  0.4085000      9.4100511E-21
  0.4090000      1.1170494E-20
  0.4095000      1.2910281E-20
  0.4100000      1.4601376E-20
  0.4105000      1.6214060E-20
  0.4110000      1.7717144E-20
  0.4115000      1.9078228E-20
  0.4120000      2.0263990E-20
  0.4125000      2.1240515E-20
  0.4130000      2.1973681E-20
  0.4135000      2.2429576E-20
  0.4140000      2.2574975E-20
  0.4145000      2.2377872E-20
  0.4150000      2.1808064E-20
  0.4155000      2.0837781E-20
  0.4160000      1.9442383E-20
  0.4165000      1.7601088E-20
  0.4170000      1.5297773E-20
  0.4175000      1.2521774E-20
  0.4180000      9.2687292E-21
  0.4185000      5.5414372E-21
  0.4190000      1.3507002E-21
  0.4195000     -3.2838626E-21
  0.4200000     -8.3330417E-21
  0.4205000     -1.3757334E-20
  0.4210000     -1.9506355E-20
  0.4215000     -2.5518370E-20
  0.4220000     -3.1719989E-20
  0.4225000     -3.8026055E-20
  0.4230000     -4.4339757E-20
  0.4235000     -5.0552982E-20
  0.4240000     -5.6546971E-20
  0.4245000     -6.2193280E-20
  0.4250000     -6.7355036E-20
  0.4255000     -7.1888561E-20
  0.4260000     -7.5645363E-20
  0.4265000     -7.8474431E-20
  0.4270000     -8.0224939E-20
  0.4275000     -8.0749223E-20
  0.4280000     -7.9906080E-20
  0.4285000     -7.7564325E-20
  0.4290000     -7.3606602E-20
  0.4295000     -6.7933287E-20
  0.4300000     -6.0466541E-20
  0.4305000     -5.1154345E-20
  0.4310000     -3.9974424E-20
  0.4315000     -2.6938043E-20
  0.4320000     -1.2093460E-20
  0.4325000      4.4709589E-21
  0.4330000      2.2624170E-20
  0.4335000      4.2190502E-20
  0.4340000      6.2948458E-20
  0.4345000      8.4630277E-20
  0.4350000      1.0692253E-19
  0.4355000      1.2946771E-19
  0.4360000      1.5186683E-19
  0.4365000      1.7368329E-19
  0.4370000      1.9444789E-19
  0.4375000      2.1366495E-19
  0.4380000      2.3081974E-19
  0.4385000      2.4538685E-19
  0.4390000      2.5683994E-19
  0.4395000      2.6466210E-19
  0.4400000      2.6835709E-19
  0.4405000      2.6746156E-19
  0.4410000      2.6155730E-19
  0.4415000      2.5028397E-19
  0.4420000      2.3335176E-19
  0.4425000      2.1055382E-19
  0.4430000      1.8177803E-19
  0.4435000      1.4701800E-19
  0.4440000      1.0638288E-19
  0.4445000      6.0105606E-20
  0.4450000      8.5494537E-21
  0.4455000     -4.7787529E-20
  0.4460000     -1.0827041E-19
  0.4465000     -1.7212790E-19
  0.4470000     -2.3845562E-19
  0.4475000     -3.0622257E-19
  0.4480000     -3.7428025E-19
  0.4485000     -4.4137546E-19
  0.4490000     -5.0616572E-19
  0.4495000     -5.6723838E-19
  0.4500000     -6.2313222E-19
  0.4505000     -6.7236203E-19
  0.4510000     -7.1344576E-19
  0.4515000     -7.4493342E-19
  0.4520000     -7.6543815E-19
  0.4525000     -7.7366844E-19
  0.4530000     -7.6846072E-19
  0.4535000     -7.4881223E-19
  0.4540000     -7.1391353E-19
  0.4545000     -6.6317908E-19
  0.4550000     -5.9627650E-19
  0.4555000     -5.1315276E-19
  0.4560000     -4.1405689E-19
  0.4565000     -2.9955873E-19
  0.4570000     -1.7056232E-19
  0.4575000     -2.8314570E-20
  0.4580000      1.2559271E-19
  0.4585000      2.8922714E-19
  0.4590000      4.6032720E-19
  0.4595000      6.3632068E-19
  0.4600000      8.1435032E-19
  0.4605000      9.9130710E-19
  0.4610000      1.1638712E-18
  0.4615000      1.3285592E-18
  0.4620000      1.4817778E-18
  0.4625000      1.6198843E-18
  0.4630000      1.7392513E-18
  0.4635000      1.8363368E-18
  0.4640000      1.9077558E-18
  0.4645000      1.9503562E-18
  0.4650000      1.9612936E-18
  0.4655000      1.9381063E-18
  0.4660000      1.8787873E-18
  0.4665000      1.7818544E-18
  0.4670000      1.6464119E-18
  0.4675000      1.4722095E-18
  0.4680000      1.2596892E-18
  0.4685000      1.0100238E-18
  0.4690000      7.2514494E-19
  0.4695000      4.0775747E-19
  0.4700000      6.1340354E-20
  0.4705000     -3.0986643E-19
  0.4710000     -7.0089045E-19
  0.4715000     -1.1060707E-18
  0.4720000     -1.5191173E-18
  0.4725000     -1.9331873E-18
  0.4730000     -2.3409737E-18
  0.4735000     -2.7348111E-18
  0.4740000     -3.1067940E-18
  0.4745000     -3.4489058E-18
  0.4750000     -3.7531583E-18
  0.4755000     -4.0117412E-18
  0.4760000     -4.2171727E-18
  0.4765000     -4.3624604E-18
  0.4770000     -4.4412543E-18
  0.4775000     -4.4480062E-18
  0.4780000     -4.3781156E-18
  0.4785000     -4.2280717E-18
  0.4790000     -3.9955835E-18
  0.4795000     -3.6796919E-18
  0.4800000     -3.2808694E-18
  0.4805000     -2.8010929E-18
  0.4810000     -2.2438974E-18
  0.4815000     -1.6144033E-18
  0.4820000     -9.1931644E-19
  0.4825000     -1.6689744E-19
  0.4830000      6.3309752E-19