  0.0000000E+00  0.0000000E+00
  5.0000002E-04  0.0000000E+00
  1.0000000E-03  0.0000000E+00
  1.5000000E-03  0.0000000E+00
  2.0000001E-03  0.0000000E+00
  2.4999999E-03  0.0000000E+00
  3.0000000E-03  0.0000000E+00
  3.5000001E-03  0.0000000E+00
  4.0000002E-03  0.0000000E+00
  4.4999998E-03  0.0000000E+00
  4.9999999E-03  0.0000000E+00
  5.5000000E-03  0.0000000E+00
  6.0000001E-03  0.0000000E+00
  6.5000001E-03  0.0000000E+00
  7.0000002E-03  0.0000000E+00
  7.4999998E-03  0.0000000E+00
  8.0000004E-03  0.0000000E+00
  8.5000005E-03  0.0000000E+00
  8.9999996E-03  0.0000000E+00
  9.4999997E-03  0.0000000E+00
  9.9999998E-03  0.0000000E+00
  1.0500000E-02  0.0000000E+00
  1.1000000E-02  0.0000000E+00
  1.1500000E-02  0.0000000E+00
  1.2000000E-02  0.0000000E+00
  1.2500000E-02  0.0000000E+00
  1.3000000E-02  0.0000000E+00
  1.3500000E-02  0.0000000E+00
  1.4000000E-02  0.0000000E+00
  1.4500000E-02  0.0000000E+00
  1.5000000E-02  0.0000000E+00
  1.5500000E-02  0.0000000E+00
  1.6000001E-02  0.0000000E+00
  1.6500000E-02  0.0000000E+00
  1.7000001E-02  0.0000000E+00
  1.7500000E-02  0.0000000E+00
  1.7999999E-02  0.0000000E+00
  1.8500000E-02  0.0000000E+00
  1.8999999E-02  0.0000000E+00
  1.9500000E-02  0.0000000E+00
  2.0000000E-02  0.0000000E+00
  2.0500001E-02  0.0000000E+00
  2.1000000E-02  0.0000000E+00
  2.1500001E-02  0.0000000E+00
  2.2000000E-02  0.0000000E+00
  2.2500001E-02  0.0000000E+00
  2.3000000E-02  0.0000000E+00
  2.3499999E-02  0.0000000E+00
  2.4000000E-02  0.0000000E+00
  2.4499999E-02  0.0000000E+00
  2.5000000E-02  0.0000000E+00
  2.5500000E-02  0.0000000E+00
  2.6000001E-02  0.0000000E+00
  2.6500000E-02  0.0000000E+00
  2.7000001E-02  0.0000000E+00
  2.7500000E-02  0.0000000E+00
  2.8000001E-02  0.0000000E+00
  2.8500000E-02  0.0000000E+00
  2.8999999E-02  0.0000000E+00
  2.9500000E-02  0.0000000E+00
  2.9999999E-02  0.0000000E+00
  3.0500000E-02  0.0000000E+00
  3.0999999E-02  0.0000000E+00
  3.1500001E-02  0.0000000E+00
  3.2000002E-02  0.0000000E+00
  3.2499999E-02  0.0000000E+00
  3.3000000E-02  0.0000000E+00
  3.3500001E-02  0.0000000E+00
  3.4000002E-02  0.0000000E+00
  3.4499999E-02  0.0000000E+00
  3.5000000E-02  0.0000000E+00
  3.5500001E-02  0.0000000E+00
  3.5999998E-02  0.0000000E+00
  3.6499999E-02  0.0000000E+00
  3.7000000E-02  0.0000000E+00
  3.7500001E-02  0.0000000E+00
  3.7999999E-02  0.0000000E+00
  3.8500000E-02  0.0000000E+00
  3.9000001E-02  0.0000000E+00
  3.9500002E-02  0.0000000E+00
  3.9999999E-02  0.0000000E+00
  4.0500000E-02  0.0000000E+00
  4.1000001E-02  0.0000000E+00
  4.1499998E-02  0.0000000E+00
  4.1999999E-02  0.0000000E+00
  4.2500000E-02  0.0000000E+00
  4.3000001E-02  0.0000000E+00
  4.3499999E-02  0.0000000E+00
  4.4000000E-02  0.0000000E+00
  4.4500001E-02  0.0000000E+00
  4.5000002E-02  0.0000000E+00
  4.5499999E-02  0.0000000E+00
  4.6000000E-02  0.0000000E+00
  4.6500001E-02  0.0000000E+00
  4.6999998E-02  0.0000000E+00
  4.7499999E-02  0.0000000E+00
  4.8000000E-02  0.0000000E+00
  4.8500001E-02  0.0000000E+00
  4.8999999E-02  0.0000000E+00
  4.9500000E-02  0.0000000E+00
  5.0000001E-02  0.0000000E+00
  5.0500002E-02  0.0000000E+00
  5.0999999E-02  0.0000000E+00
  5.1500000E-02  0.0000000E+00
  5.2000001E-02  0.0000000E+00
  5.2499998E-02  0.0000000E+00
  5.2999999E-02  0.0000000E+00
  5.3500000E-02  0.0000000E+00
  5.4000001E-02  0.0000000E+00
  5.4499999E-02  0.0000000E+00
  5.5000000E-02  0.0000000E+00
  5.5500001E-02  0.0000000E+00
  5.6000002E-02  0.0000000E+00
  5.6499999E-02  0.0000000E+00
  5.7000000E-02  0.0000000E+00
  5.7500001E-02  0.0000000E+00
  5.7999998E-02  0.0000000E+00
  5.8499999E-02  0.0000000E+00
  5.9000000E-02  0.0000000E+00
  5.9500001E-02  0.0000000E+00
  5.9999999E-02  0.0000000E+00
  6.0500000E-02  0.0000000E+00
  6.1000001E-02  0.0000000E+00
  6.1500002E-02  0.0000000E+00
  6.1999999E-02  0.0000000E+00
  6.2500000E-02  0.0000000E+00
  6.3000001E-02  0.0000000E+00
  6.3500002E-02  0.0000000E+00
  6.4000003E-02  0.0000000E+00
  6.4499997E-02  0.0000000E+00
  6.4999998E-02  0.0000000E+00
  6.5499999E-02  0.0000000E+00
  6.6000000E-02  0.0000000E+00
  6.6500001E-02  0.0000000E+00
  6.7000002E-02  0.0000000E+00
  6.7500003E-02  0.0000000E+00
  6.8000004E-02  0.0000000E+00
  6.8499997E-02  0.0000000E+00
  6.8999998E-02  0.0000000E+00
  6.9499999E-02  0.0000000E+00
  7.0000000E-02  0.0000000E+00
  7.0500001E-02  0.0000000E+00
  7.1000002E-02  0.0000000E+00
  7.1500003E-02  0.0000000E+00
  7.1999997E-02  0.0000000E+00
  7.2499998E-02  0.0000000E+00
  7.2999999E-02  0.0000000E+00
  7.3500000E-02  0.0000000E+00
  7.4000001E-02  0.0000000E+00
  7.4500002E-02  0.0000000E+00
  7.5000003E-02  0.0000000E+00
  7.5499997E-02  0.0000000E+00
  7.5999998E-02  0.0000000E+00
  7.6499999E-02  0.0000000E+00
  7.7000000E-02  0.0000000E+00
  7.7500001E-02  0.0000000E+00
  7.8000002E-02  0.0000000E+00
  7.8500003E-02  0.0000000E+00
  7.9000004E-02  0.0000000E+00
  7.9499997E-02  0.0000000E+00
  7.9999998E-02  0.0000000E+00
  8.0499999E-02  0.0000000E+00
  8.1000000E-02  0.0000000E+00
  8.1500001E-02  0.0000000E+00
  8.2000002E-02  0.0000000E+00
  8.2500003E-02  0.0000000E+00
  8.2999997E-02  0.0000000E+00
  8.3499998E-02  0.0000000E+00
  8.3999999E-02  0.0000000E+00
  8.4500000E-02  0.0000000E+00
  8.5000001E-02  0.0000000E+00
  8.5500002E-02  0.0000000E+00
  8.6000003E-02  0.0000000E+00
  8.6499996E-02  0.0000000E+00
  8.6999997E-02  0.0000000E+00
  8.7499999E-02  0.0000000E+00
  8.8000000E-02  0.0000000E+00
  8.8500001E-02  0.0000000E+00
  8.9000002E-02  0.0000000E+00
  8.9500003E-02  0.0000000E+00
  9.0000004E-02  0.0000000E+00
  9.0499997E-02  0.0000000E+00
  9.0999998E-02  0.0000000E+00
  9.1499999E-02  0.0000000E+00
  9.2000000E-02  0.0000000E+00
  9.2500001E-02  0.0000000E+00
  9.3000002E-02  0.0000000E+00
  9.3500003E-02  0.0000000E+00
  9.3999997E-02  0.0000000E+00
  9.4499998E-02  0.0000000E+00
  9.4999999E-02  0.0000000E+00
  9.5500000E-02  0.0000000E+00
  9.6000001E-02  0.0000000E+00
  9.6500002E-02  0.0000000E+00
  9.7000003E-02  0.0000000E+00
  9.7499996E-02  0.0000000E+00
  9.7999997E-02  0.0000000E+00
  9.8499998E-02  0.0000000E+00
  9.8999999E-02  0.0000000E+00
  9.9500000E-02  0.0000000E+00
  0.1000000      0.0000000E+00
  0.1005000      0.0000000E+00
  0.1010000      0.0000000E+00
  0.1015000     -1.3666886E-38
  0.1020000     -3.5138484E-38
  0.1025000     -9.0078912E-38
  0.1030000     -1.5517719E-37
  0.1035000     -2.0464650E-37
  0.1040000     -2.3904192E-37
  0.1045000     -2.4908591E-37
  0.1050000     -2.1242109E-37
  0.1055000     -1.3691356E-37
  0.1060000     -4.9025694E-38
  0.1065000      8.2432963E-38
  0.1070000      2.4366372E-37
  0.1075000      4.0456213E-37
  0.1080000      5.4494748E-37
  0.1085000      6.2991720E-37
  0.1090000      6.4893123E-37
  0.1095000      5.9423158E-37
  0.1100000      4.5040136E-37
  0.1105000      2.1724184E-37
  0.1110000     -7.4372195E-38
  0.1115000     -4.3005419E-37
  0.1120000     -1.0808727E-36
  0.1125000     -1.9151848E-36
  0.1130000     -2.4496690E-36
  0.1135000     -2.3870402E-36
  0.1140000     -1.6847729E-36
  0.1145000     -5.6519223E-37
  0.1150000      1.0796548E-36
  0.1155000      2.1308140E-36
  0.1160000      2.4120473E-36
  0.1165000      2.8189246E-36
  0.1170000      1.8730459E-36
  0.1175000      5.8234879E-37
  0.1180000      2.3817132E-37
  0.1185000     -8.7881467E-37
  0.1190000     -2.8024093E-36
  0.1195000     -4.4939112E-36
  0.1200000     -5.6110096E-36
  0.1205000     -6.0147127E-36
  0.1210000     -6.2369338E-36
  0.1215000     -6.4180076E-36
  0.1220000     -6.5296473E-36
  0.1225000     -8.1991463E-36
  0.1230000     -1.0530436E-35
  0.1235000     -1.2127486E-35
  0.1240000     -1.3496056E-35
  0.1245000     -1.4289754E-35
  0.1250000     -1.0775075E-35
  0.1255000      1.0414307E-36
  0.1260000      2.0303520E-35
  0.1265000      4.5147750E-35
  0.1270000      7.3930094E-35
  0.1275000      1.0432931E-34
  0.1280000      1.3187768E-34
  0.1285000      1.5246451E-34
  0.1290000      1.6338339E-34
  0.1295000      1.6147475E-34
  0.1300000      1.4433255E-34
  0.1305000      1.1045324E-34
  0.1310000      5.9331315E-35
  0.1315000     -8.7043204E-36
  0.1320000     -9.1992873E-35
  0.1325000     -1.8775003E-34
  0.1330000     -2.9272514E-34
  0.1335000     -4.0235312E-34
  0.1340000     -5.1077764E-34
  0.1345000     -6.1184219E-34
  0.1350000     -6.9870121E-34
  0.1355000     -7.6330202E-34
  0.1360000     -7.9731275E-34
  0.1365000     -7.9233554E-34
  0.1370000     -7.4017738E-34
  0.1375000     -6.3327761E-34
  0.1380000     -4.6520809E-34
  0.1385000     -2.3137400E-34
  0.1390000      7.0076763E-35
  0.1395000      4.3727857E-34
  0.1400000      8.6387052E-34
  0.1405000      1.3395778E-33
  0.1410000      1.8470166E-33
  0.1415000      2.3615391E-33
  0.1420000      2.8545416E-33
  0.1425000      3.2932980E-33
  0.1430000      3.6419383E-33
  0.1435000      3.8630983E-33
  0.1440000      3.9200180E-33
  0.1445000      3.7780080E-33
  0.1450000      3.4066811E-33
  0.1455000      2.7823476E-33
  0.1460000      1.8901147E-33
  0.1465000      7.2573653E-34
  0.1470000     -7.0247400E-34
  0.1475000     -2.3720032E-33
  0.1480000     -4.2448960E-33
  0.1485000     -6.2670159E-33
  0.1490000     -8.3675082E-33
  0.1495000     -1.0459417E-32
  0.1500000     -1.2440896E-32
  0.1505000     -1.4197096E-32
  0.1510000     -1.5603719E-32
  0.1515000     -1.6531190E-32
  0.1520000     -1.6850034E-32
  0.1525000     -1.6437134E-32
  0.1530000     -1.5182645E-32
  0.1535000     -1.2997353E-32
  0.1540000     -9.8201246E-33
  0.1545000     -5.6252250E-33
  0.1550000     -4.2904442E-34
  0.1555000      5.7039442E-33
  0.1560000      1.2656489E-32
  0.1565000      2.0255413E-32
  0.1570000      2.8270301E-32
  0.1575000      3.6414411E-32
  0.1580000      4.4348243E-32
  0.1585000      5.1685852E-32
  0.1590000      5.8004263E-32
  0.1595000      6.2856281E-32
  0.1600000      6.5786588E-32
  0.1605000      6.6350978E-32
  0.1610000      6.4138369E-32
  0.1615000      5.8795018E-32
  0.1620000      5.0050016E-32
  0.1625000      3.7741024E-32
  0.1630000      2.1838919E-32
  0.1635000      2.4701139E-33
  0.1640000     -2.0065151E-32
  0.1645000     -4.5279995E-32
  0.1650000     -7.2494982E-32
  0.1655000     -1.0084038E-31
  0.1660000     -1.2926763E-31
  0.1665000     -1.5657079E-31
  0.1670000     -1.8141829E-31
  0.1675000     -2.0239478E-31
  0.1680000     -2.1805274E-31
  0.1685000     -2.2697268E-31
  0.1690000     -2.2783015E-31
  0.1695000     -2.1946802E-31
  0.1700000     -2.0097046E-31
  0.1705000     -1.7173672E-31
  0.1710000     -1.3155017E-31
  0.1715000     -8.0639759E-32
  0.1720000     -1.9729261E-32
  0.1725000      4.9929152E-32
  0.1730000      1.2654085E-31
  0.1735000      2.0777768E-31
  0.1740000      2.9081291E-31
  0.1745000      3.7238427E-31
  0.1750000      4.4888579E-31
  0.1755000      5.1648890E-31
  0.1760000      5.7129058E-31
  0.1765000      6.0948550E-31
  0.1770000      6.2755736E-31
  0.1775000      6.2248200E-31
  0.1780000      5.9193419E-31
  0.1785000      5.3448694E-31
  0.1790000      4.4979309E-31
  0.1795000      3.3873494E-31
  0.1800000      2.0353031E-31
  0.1805000      4.7781912E-32
  0.1810000     -1.2354051E-31
  0.1815000     -3.0419520E-31
  0.1820000     -4.8684561E-31
  0.1825000     -6.6332192E-31
  0.1830000     -8.2496363E-31
  0.1835000     -9.6303494E-31
  0.1840000     -1.0691975E-30
  0.1845000     -1.1360209E-30
  0.1850000     -1.1575041E-30
  0.1855000     -1.1295782E-30
  0.1860000     -1.0505543E-30
  0.1865000     -9.2148375E-31
  0.1870000     -7.4639269E-31
  0.1875000     -5.3236230E-31
  0.1880000     -2.8942514E-31
  0.1885000     -3.0263090E-32
  0.1890000      2.3030203E-31
  0.1895000      4.7601841E-31
  0.1900000      6.9009549E-31
  0.1905000      8.5624034E-31
  0.1910000      9.5979217E-31
  0.1915000      9.8889158E-31
  0.1920000      9.3561413E-31
  0.1925000      7.9698761E-31
  0.1930000      5.7581412E-31
  0.1935000      2.8121544E-31
  0.1940000     -7.1164269E-32
  0.1945000     -4.5935879E-31
  0.1950000     -8.5571926E-31
  0.1955000     -1.2280074E-30
  0.1960000     -1.5409291E-30
  0.1965000     -1.7580677E-30
  0.1970000     -1.8441437E-30
  0.1975000     -1.7675038E-30
  0.1980000     -1.5027098E-30
  0.1985000     -1.0330862E-30
  0.1990000     -3.5306234E-31
  0.1995000      5.2985290E-31
  0.2000000      1.5936275E-30
  0.2005000      2.8009450E-30
  0.2010000      4.0992512E-30
  0.2015000      5.4217087E-30
  0.2020000      6.6891120E-30
  0.2025000      7.8127771E-30
  0.2030000      8.6983648E-30
  0.2035000      9.2505409E-30
  0.2040000      9.3783256E-30
  0.2045000      9.0009329E-30
  0.2050000      8.0538501E-30
  0.2055000      6.4948662E-30
  0.2060000      4.3097302E-30
  0.2065000      1.5171087E-30
  0.2070000     -1.8275112E-30
  0.2075000     -5.6292984E-30
  0.2080000     -9.7532418E-30
  0.2085000     -1.4025272E-29
  0.2090000     -1.8235531E-29
  0.2095000     -2.2143932E-29
  0.2100000     -2.5488049E-29
  0.2105000     -2.7993259E-29
  0.2110000     -2.9384963E-29
  0.2115000     -2.9402604E-29
  0.2120000     -2.7815042E-29
  0.2125000     -2.4436772E-29
  0.2130000     -1.9144335E-29
  0.2135000     -1.1892158E-29
  0.2140000     -2.7270459E-30
  0.2145000      8.1995640E-30
  0.2150000      2.0622446E-29
  0.2155000      3.4157367E-29
  0.2160000      4.8300632E-29
  0.2165000      6.2434039E-29
  0.2170000      7.5835767E-29
  0.2175000      8.7697497E-29
  0.2180000      9.7147933E-29
  0.2185000      1.0328247E-28
  0.2190000      1.0519859E-28
  0.2195000      1.0203627E-28
  0.2200000      9.3022188E-29
  0.2205000      7.7516526E-29
  0.2210000      5.5060808E-29
  0.2215000      2.5424773E-29
  0.2220000     -1.1349559E-29
  0.2225000     -5.4908684E-29
  0.2230000     -1.0455532E-28
  0.2235000     -1.5922525E-28
  0.2240000     -2.1747500E-28
  0.2245000     -2.7748199E-28
  0.2250000     -3.3705881E-28
  0.2255000     -3.9368237E-28
  0.2260000     -4.4453877E-28
  0.2265000     -4.8658413E-28
  0.2270000     -5.1662093E-28
  0.2275000     -5.3138930E-28
  0.2280000     -5.2767163E-28
  0.2285000     -5.0240983E-28
  0.2290000     -4.5283216E-28
  0.2295000     -3.7658719E-28
  0.2300000     -2.7188264E-28
  0.2305000     -1.3762508E-28
  0.2310000      2.6442534E-29
  0.2315000      2.1961057E-28
  0.2320000      4.4008226E-28
  0.2325000      6.8486916E-28
  0.2330000      9.4970571E-28
  0.2335000      1.2289902E-27
  0.2340000      1.5157548E-27
  0.2345000      1.8016711E-27
  0.2350000      2.0770973E-27
  0.2355000      2.3311697E-27
  0.2360000      2.5519452E-27
  0.2365000      2.7265980E-27
  0.2370000      2.8416750E-27
  0.2375000      2.8834116E-27
  0.2380000      2.8381062E-27
  0.2385000      2.6925587E-27
  0.2390000      2.4345623E-27
  0.2395000      2.0534483E-27
  0.2400000      1.5406745E-27
  0.2405000      8.9044456E-28
  0.2410000      1.0034304E-28
  0.2415000     -8.2803143E-28
  0.2420000     -1.8884546E-27
  0.2425000     -3.0695134E-27
  0.2430000     -4.3541201E-27
  0.2435000     -5.7191299E-27
  0.2440000     -7.1350913E-27
  0.2445000     -8.5661651E-27
  0.2450000     -9.9702427E-27
  0.2455000     -1.1299284E-26
  0.2460000     -1.2499905E-26
  0.2465000     -1.3514246E-26
  0.2470000     -1.4281103E-26
  0.2475000     -1.4737372E-26
  0.2480000     -1.4819749E-26
  0.2485000     -1.4466729E-26
  0.2490000     -1.3620827E-26
  0.2495000     -1.2231007E-26
  0.2500000     -1.0255274E-26
  0.2505000     -7.6633454E-27
  0.2510000     -4.4393344E-27
  0.2515000     -5.8437130E-28
  0.2520000      3.8809534E-27
  0.2525000      8.9144187E-27
  0.2530000      1.4450377E-26
  0.2535000      2.0398442E-26
  0.2540000      2.6642791E-26
  0.2545000      3.3042151E-26
  0.2550000      3.9430574E-26
  0.2555000      4.5619096E-26
  0.2560000      5.1398288E-26
  0.2565000      5.6541833E-26
  0.2570000      6.0811013E-26
  0.2575000      6.3960214E-26
  0.2580000      6.5743292E-26
  0.2585000      6.5920823E-26
  0.2590000      6.4268011E-26
  0.2595000      6.0583192E-26
  0.2600000      5.4696645E-26
  0.2605000      4.6479598E-26
  0.2610000      3.5853112E-26
  0.2615000      2.2796563E-26
  0.2620000      7.3554647E-27
  0.2625000     -1.0351725E-26
  0.2630000     -3.0128089E-26
  0.2635000     -5.1694345E-26
  0.2640000     -7.4686824E-26
  0.2645000     -9.8657706E-26
  0.2650000     -1.2307755E-25
  0.2655000     -1.4734047E-25
  0.2660000     -1.7077210E-25
  0.2665000     -1.9264031E-25
  0.2670000     -2.1216865E-25
  0.2675000     -2.2855263E-25
  0.2680000     -2.4097847E-25
  0.2685000     -2.4864413E-25
  0.2690000     -2.5078221E-25
  0.2695000     -2.4668442E-25
  0.2700000     -2.3572690E-25
  0.2705000     -2.1739606E-25
  0.2710000     -1.9131391E-25
  0.2715000     -1.5726261E-25
  0.2720000     -1.1520703E-25
  0.2725000     -6.5314811E-26
  0.2730000     -7.9732059E-27
  0.2735000      5.6198315E-26
  0.2740000      1.2634025E-25
  0.2745000      2.0135060E-25
  0.2750000      2.7988851E-25
  0.2755000      3.6038442E-25
  0.2760000      4.4105696E-25
  0.2765000      5.1993684E-25
  0.2770000      5.9489746E-25
  0.2775000      6.6369284E-25
  0.2780000      7.2400135E-25
  0.2785000      7.7347580E-25
  0.2790000      8.0979816E-25
  0.2795000      8.3073897E-25
  0.2800000      8.3421913E-25
  0.2805000      8.1837407E-25
  0.2810000      7.8161803E-25
  0.2815000      7.2270703E-25
  0.2820000      6.4079911E-25
  0.2825000      5.3550994E-25
  0.2830000      4.0696291E-25
  0.2835000      2.5583077E-25
  0.2840000      8.3367930E-26
  0.2845000     -1.0856719E-25
  0.2850000     -3.1750246E-25
  0.2855000     -5.4035552E-25
  0.2860000     -7.7345090E-25
  0.2865000     -1.0125515E-24
  0.2870000     -1.2529050E-24
  0.2875000     -1.4893053E-24
  0.2880000     -1.7161681E-24
  0.2885000     -1.9276199E-24
  0.2890000     -2.1175999E-24
  0.2895000     -2.2799743E-24
  0.2900000     -2.4086584E-24
  0.2905000     -2.4977496E-24
  0.2910000     -2.5416633E-24
  0.2915000     -2.5352749E-24
  0.2920000     -2.4740611E-24
  0.2925000     -2.3542408E-24
  0.2930000     -2.1729124E-24
  0.2935000     -1.9281835E-24
  0.2940000     -1.6192908E-24
  0.2945000     -1.2467099E-24
  0.2950000     -8.1224797E-25
  0.2955000     -3.1912197E-25
  0.2960000      2.2798598E-25
  0.2965000      8.2289241E-25
  0.2970000      1.4579023E-24
  0.2975000      2.1238238E-24
  0.2980000      2.8100115E-24
  0.2985000      3.5044400E-24
  0.2990000      4.1938062E-24
  0.2995000      4.8636663E-24
  0.3000000      5.4986051E-24
  0.3005000      6.0824367E-24
  0.3010000      6.5984416E-24
  0.3015000      7.0296373E-24
  0.3020000      7.3590767E-24
  0.3025000      7.5701838E-24
  0.3030000      7.6471135E-24
  0.3035000      7.5751378E-24
  0.3040000      7.3410536E-24
  0.3045000      6.9336030E-24
  0.3050000      6.3439101E-24
  0.3055000      5.5659095E-24
  0.3060000      4.5967789E-24
  0.3065000      3.4373458E-24
  0.3070000      2.0924703E-24
  0.3075000      5.7138364E-25
  0.3080000     -1.1120226E-24
  0.3085000     -2.9389800E-24
  0.3090000     -4.8857051E-24
  0.3095000     -6.9233628E-24
  0.3100000     -9.0181324E-24
  0.3105000     -1.1131406E-23
  0.3110000     -1.3220115E-23
  0.3115000     -1.5237208E-23
  0.3120000     -1.7132263E-23
  0.3125000     -1.8852272E-23
  0.3130000     -2.0342572E-23
  0.3135000     -2.1547915E-23
  0.3140000     -2.2413698E-23
  0.3145000     -2.2887285E-23
  0.3150000     -2.2919467E-23
  0.3155000     -2.2465978E-23
  0.3160000     -2.1489055E-23
  0.3165000     -1.9959033E-23
  0.3170000     -1.7855874E-23
  0.3175000     -1.5170658E-23
  0.3180000     -1.1906927E-23
  0.3185000     -8.0818610E-24
  0.3190000     -3.7272502E-24
  0.3195000      1.1098285E-24
  0.3200000      6.3666325E-24
  0.3205000      1.1964737E-23
  0.3210000      1.7810416E-23
  0.3215000      2.3795446E-23
  0.3220000      2.9798356E-23
  0.3225000      3.5686133E-23
  0.3230000      4.1316372E-23
  0.3235000      4.6539878E-23
  0.3240000      5.1203680E-23
  0.3245000      5.5154390E-23
  0.3250000      5.8241904E-23
  0.3255000      6.0323329E-23
  0.3260000      6.1267090E-23
  0.3265000      6.0957074E-23
  0.3270000      5.9296787E-23
  0.3275000      5.6213307E-23
  0.3280000      5.1661046E-23
  0.3285000      4.5625067E-23
  0.3290000      3.8123947E-23
  0.3295000      2.9211999E-23
  0.3300000      1.8980820E-23
  0.3305000      7.5599625E-24
  0.3310000     -4.8832458E-24
  0.3315000     -1.8144829E-23
  0.3320000     -3.1986334E-23
  0.3325000     -4.6138007E-23
  0.3330000     -6.0302970E-23
  0.3335000     -7.4162442E-23
  0.3340000     -8.7381801E-23
  0.3345000     -9.9617576E-23
  0.3350000     -1.1052509E-22
  0.3355000     -1.1976678E-22
  0.3360000     -1.2702082E-22
  0.3365000     -1.3199005E-22
  0.3370000     -1.3441094E-22
  0.3375000     -1.3406222E-22
  0.3380000     -1.3077322E-22
  0.3385000     -1.2443144E-22
  0.3390000     -1.1498925E-22
  0.3395000     -1.0246942E-22
  0.3400000     -8.6969233E-23
  0.3405000     -6.8663166E-23
  0.3410000     -4.7803677E-23
  0.3415000     -2.4720193E-23
  0.3420000      1.8386188E-25
  0.3425000      2.6436188E-23
  0.3430000      5.3502736E-23
  0.3435000      8.0796863E-23
  0.3440000      1.0769048E-22
  0.3445000      1.3352690E-22
  0.3450000      1.5763541E-22
  0.3455000      1.7934716E-22
  0.3460000      1.9801206E-22
  0.3465000      2.1301648E-22
  0.3470000      2.2380110E-22
  0.3475000      2.2987879E-22
  0.3480000      2.3085193E-22
  0.3485000      2.2642847E-22
  0.3490000      2.1643678E-22
  0.3495000      2.0083814E-22
  0.3500000      1.7973703E-22
  0.3505000      1.5338837E-22
  0.3510000      1.2220133E-22
  0.3515000      8.6739630E-23
  0.3520000      4.7717754E-23
  0.3525000      5.9929984E-24
  0.3530000     -3.7446811E-23
  0.3535000     -8.1499984E-23
  0.3540000     -1.2497191E-22
  0.3545000     -1.6660015E-22
  0.3550000     -2.0508334E-22
  0.3555000     -2.3911343E-22
  0.3560000     -2.6741102E-22
  0.3565000     -2.8876262E-22
  0.3570000     -3.0205979E-22
  0.3575000     -3.0633854E-22
  0.3580000     -3.0081871E-22
  0.3585000     -2.8494181E-22
  0.3590000     -2.5840652E-22
  0.3595000     -2.2120061E-22
  0.3600000     -1.7362826E-22
  0.3605000     -1.1633141E-22
  0.3610000     -5.0304180E-23
  0.3615000      2.3100651E-23
  0.3620000      1.0217409E-22
  0.3625000      1.8486320E-22
  0.3630000      2.6879384E-22
  0.3635000      3.5130420E-22
  0.3640000      4.2948975E-22
  0.3645000      5.0025939E-22
  0.3650000      5.6040199E-22
  0.3655000      6.0666433E-22
  0.3660000      6.3583774E-22
  0.3665000      6.4485363E-22
  0.3670000      6.3088506E-22
  0.3675000      5.9145403E-22
  0.3680000      5.2454060E-22
  0.3685000      4.2869292E-22
  0.3690000      3.0313360E-22
  0.3695000      1.4786095E-22
  0.3700000     -3.6259383E-23
  0.3705000     -2.4741505E-22
  0.3710000     -4.8278409E-22
  0.3715000     -7.3849159E-22
  0.3720000     -1.0095894E-21
  0.3725000     -1.2900617E-21
  0.3730000     -1.5728609E-21
  0.3735000     -1.8499747E-21
  0.3740000     -2.1125262E-21
  0.3745000     -2.3509107E-21
  0.3750000     -2.5549662E-21
  0.3755000     -2.7141813E-21
  0.3760000     -2.8179356E-21
  0.3765000     -2.8557720E-21
  0.3770000     -2.8176991E-21
  0.3775000     -2.6945144E-21
  0.3780000     -2.4781471E-21
  0.3785000     -2.1620124E-21
  0.3790000     -1.7413671E-21
  0.3795000     -1.2136603E-21
  0.3800000     -5.7886835E-22
  0.3805000      1.6019809E-22
  0.3810000      9.9762526E-22
  0.3815000      1.9241760E-21
  0.3820000      2.9271309E-21
  0.3825000      3.9902005E-21
  0.3830000      5.0935242E-21
  0.3835000      6.2137557E-21
  0.3840000      7.3242570E-21
  0.3845000      8.3953913E-21
  0.3850000      9.3949348E-21
  0.3855000      1.0288597E-20
  0.3860000      1.1040658E-20
  0.3865000      1.1614710E-20
  0.3870000      1.1974502E-20
  0.3875000      1.2084887E-20
  0.3880000      1.1912823E-20
  0.3885000      1.1428452E-20
  0.3890000      1.0606215E-20
  0.3895000      9.4259735E-21
  0.3900000      7.8741237E-21
  0.3905000      5.9446676E-21
  0.3910000      3.6401997E-21
  0.3915000      9.7279792E-22
  0.3920000     -2.0352292E-21
  0.3925000     -5.3507814E-21
  0.3930000     -8.9296070E-21
  0.3935000     -1.2716180E-20
  0.3940000     -1.6643847E-20
  0.3945000     -2.0635263E-20
  0.3950000     -2.4603140E-20
  0.3955000     -2.8451310E-20
  0.3960000     -3.2076119E-20
  0.3965000     -3.5368139E-20
  0.3970000     -3.8214219E-20
  0.3975000     -4.0499797E-20
  0.3980000     -4.2111497E-20
  0.3985000     -4.2939973E-20
  0.3990000     -4.2882907E-20
  0.3995000     -4.1848133E-20
  0.4000000     -3.9756869E-20
  0.4005000     -3.6546869E-20
  0.4010000     -3.2175552E-20
  0.4015000     -2.6622928E-20
  0.4020000     -1.9894280E-20
  0.4025000     -1.2022493E-20
  0.4030000     -3.0699510E-21
  0.4035000      6.8700840E-21
  0.4040000      1.7672672E-20
  0.4045000      2.9181087E-20
  0.4050000      4.1207427E-20
  0.4055000      5.3534021E-20
  0.4060000      6.5915638E-20
  0.4065000      7.8082554E-20
  0.4070000      8.9744456E-20
  0.4075000      1.0059517E-19
  0.4080000      1.1031816E-19
  0.4085000      1.1859279E-19
  0.4090000      1.2510121E-19
  0.4095000      1.2953571E-19
  0.4100000      1.3160658E-19
  0.4105000      1.3105026E-19
  0.4110000      1.2763743E-19
  0.4115000      1.2118120E-19
  0.4120000      1.1154490E-19
  0.4125000      9.8649508E-20
  0.4130000      8.2480273E-20
  0.4135000      6.3092600E-20
  0.4140000      4.0616688E-20
  0.4145000      1.5261019E-20
  0.4150000     -1.2685692E-20
  0.4155000     -4.2854134E-20
  0.4160000     -7.4795791E-20
  0.4165000     -1.0798625E-19
  0.4170000     -1.4183037E-19
  0.4175000     -1.7566942E-19
  0.4180000     -2.0879027E-19
  0.4185000     -2.4043646E-19
  0.4190000     -2.6982091E-19
  0.4195000     -2.9614051E-19
  0.4200000     -3.1859203E-19
  0.4205000     -3.3638941E-19
  0.4210000     -3.4878171E-19
  0.4215000     -3.5507203E-19
  0.4220000     -3.5463639E-19
  0.4225000     -3.4694255E-19
  0.4230000     -3.3156837E-19
  0.4235000     -3.0821895E-19
  0.4240000     -2.7674250E-19
  0.4245000     -2.3714423E-19
  0.4250000     -1.8959800E-19
  0.4255000     -1.3445520E-19
  0.4260000     -7.2250433E-20
  0.4265000     -3.7037678E-21
  0.4270000      7.0280645E-20
  0.4275000      1.4861999E-19
  0.4280000      2.3006232E-19
  0.4285000      3.1320020E-19
  0.4290000      3.9648884E-19
  0.4295000      4.7826792E-19
  0.4300000      5.5678757E-19
  0.4305000      6.3023801E-19
  0.4310000      6.9678231E-19
  0.4315000      7.5459205E-19
  0.4320000      8.0188481E-19
  0.4325000      8.3696404E-19
  0.4330000      8.5825903E-19
  0.4335000      8.6436517E-19
  0.4340000      8.5408368E-19
  0.4345000      8.2645957E-19
  0.4350000      7.8081724E-19
  0.4355000      7.1679222E-19
  0.4360000      6.3435975E-19
  0.4365000      5.3385720E-19
  0.4370000      4.1600115E-19
  0.4375000      2.8189788E-19
  0.4380000      1.3304690E-19
  0.4385000     -2.8663721E-20
  0.4390000     -2.0096962E-19
  0.4395000     -3.8125070E-19
  0.4400000     -5.6656051E-19
  0.4405000     -7.5366344E-19
  0.4410000     -9.3908016E-19
  0.4415000     -1.1191405E-18
  0.4420000     -1.2900435E-18
  0.4425000     -1.4479236E-18
  0.4430000     -1.5889226E-18
  0.4435000     -1.7092643E-18
  0.4440000     -1.8053341E-18
  0.4445000     -1.8737585E-18
  0.4450000     -1.9114854E-18
  0.4455000     -1.9158624E-18
  0.4460000     -1.8847116E-18
  0.4465000     -1.8164012E-18
  0.4470000     -1.7099086E-18
  0.4475000     -1.5648763E-18
  0.4480000     -1.3816583E-18
  0.4485000     -1.1613545E-18
  0.4490000     -9.0583412E-19
  0.4495000     -6.1774334E-19
  0.4500000     -3.0050099E-19
  0.4505000      4.1722796E-20
  0.4510000      4.0404309E-19
  0.4515000      7.8091175E-19
  0.4520000      1.1661851E-18
  0.4525000      1.5532072E-18
  0.4530000      1.9349072E-18
  0.4535000      2.3039098E-18
  0.4540000      2.6526580E-18
  0.4545000      2.9735449E-18
  0.4550000      3.2590550E-18
  0.4555000      3.5019101E-18
  0.4560000      3.6952189E-18
  0.4565000      3.8326297E-18
  0.4570000      3.9084755E-18
  0.4575000      3.9179199E-18
  0.4580000      3.8570907E-18
  0.4585000      3.7232049E-18
  0.4590000      3.5146780E-18
  0.4595000      3.2312177E-18
  0.4600000      2.8738963E-18
  0.4605000      2.4452044E-18
  0.4610000      1.9490776E-18
  0.4615000      1.3908979E-18
  0.4620000      7.7746949E-19
  0.4625000      1.1696639E-19
  0.4630000     -5.8115022E-19
  0.4635000     -1.3062403E-18
  0.4640000     -2.0466225E-18
  0.4645000     -2.7897373E-18
  0.4650000     -3.5223340E-18
  0.4655000     -4.2306814E-18
  0.4660000     -4.9007945E-18
  0.4665000     -5.5186827E-18
  0.4670000     -6.0706045E-18
  0.4675000     -6.5433345E-18
  0.4680000     -6.9244294E-18
  0.4685000     -7.2024957E-18
  0.4690000     -7.3674496E-18
  0.4695000     -7.4107640E-18
  0.4700000     -7.3256993E-18
  0.4705000     -7.1075130E-18
  0.4710000     -6.7536402E-18
  0.4715000     -6.2638426E-18
  0.4720000     -5.6403217E-18
  0.4725000     -4.8877933E-18
  0.4730000     -4.0135171E-18
  0.4735000     -3.0272827E-18
  0.4740000     -1.9413478E-18
  0.4745000     -7.7032792E-19
  0.4750000      4.6896488E-19
  0.4755000      1.7577274E-18
  0.4760000      3.0754166E-18
  0.4765000      4.4000458E-18
  0.4770000      5.7085206E-18
  0.4775000      6.9770079E-18
  0.4780000      8.1813366E-18
  0.4785000      9.2974199E-18
  0.4790000      1.0301698E-17
  0.4795000      1.1171587E-17
  0.4800000      1.1885926E-17
  0.4805000      1.2425425E-17
  0.4810000      1.2773091E-17
  0.4815000      1.2914629E-17
  0.4820000      1.2838818E-17
  0.4825000      1.2537840E-17
  0.4830000      1.2007560E-17