  0.0000000E+00  0.0000000E+00
  5.0000002E-04  0.0000000E+00
  1.0000000E-03  0.0000000E+00
  1.5000000E-03  0.0000000E+00
  2.0000001E-03  0.0000000E+00
  2.4999999E-03  0.0000000E+00
  3.0000000E-03  0.0000000E+00
  3.5000001E-03  0.0000000E+00
  4.0000002E-03  0.0000000E+00
  4.4999998E-03  0.0000000E+00
  4.9999999E-03  0.0000000E+00
  5.5000000E-03  0.0000000E+00
  6.0000001E-03  0.0000000E+00
  6.5000001E-03  0.0000000E+00
  7.0000002E-03  0.0000000E+00
  7.4999998E-03  0.0000000E+00
  8.0000004E-03  0.0000000E+00
  8.5000005E-03  0.0000000E+00
  8.9999996E-03  0.0000000E+00
  9.4999997E-03  0.0000000E+00
  9.9999998E-03  0.0000000E+00
  1.0500000E-02  0.0000000E+00
  1.1000000E-02  0.0000000E+00
  1.1500000E-02  0.0000000E+00
  1.2000000E-02  0.0000000E+00
  1.2500000E-02  0.0000000E+00
  1.3000000E-02  0.0000000E+00
  1.3500000E-02  0.0000000E+00
  1.4000000E-02  0.0000000E+00
  1.4500000E-02  0.0000000E+00
  1.5000000E-02  0.0000000E+00
  1.5500000E-02  0.0000000E+00
  1.6000001E-02  0.0000000E+00
  1.6500000E-02  0.0000000E+00
  1.7000001E-02  0.0000000E+00
  1.7500000E-02  0.0000000E+00
  1.7999999E-02  0.0000000E+00
  1.8500000E-02  0.0000000E+00
  1.8999999E-02  0.0000000E+00
  1.9500000E-02  0.0000000E+00
  2.0000000E-02  0.0000000E+00
  2.0500001E-02  0.0000000E+00
  2.1000000E-02  0.0000000E+00
  2.1500001E-02  0.0000000E+00
  2.2000000E-02  0.0000000E+00
  2.2500001E-02  0.0000000E+00
  2.3000000E-02  0.0000000E+00
  2.3499999E-02  0.0000000E+00
  2.4000000E-02  0.0000000E+00
  2.4499999E-02  0.0000000E+00
  2.5000000E-02  0.0000000E+00
  2.5500000E-02  0.0000000E+00
  2.6000001E-02  0.0000000E+00
  2.6500000E-02  0.0000000E+00
  2.7000001E-02  0.0000000E+00
  2.7500000E-02  0.0000000E+00
  2.8000001E-02  0.0000000E+00
  2.8500000E-02  0.0000000E+00
  2.8999999E-02  0.0000000E+00
  2.9500000E-02  0.0000000E+00
  2.9999999E-02  0.0000000E+00
  3.0500000E-02  0.0000000E+00
  3.0999999E-02  0.0000000E+00
  3.1500001E-02  0.0000000E+00
  3.2000002E-02  0.0000000E+00
  3.2499999E-02  0.0000000E+00
  3.3000000E-02  0.0000000E+00
  3.3500001E-02  0.0000000E+00
  3.4000002E-02  0.0000000E+00
  3.4499999E-02  0.0000000E+00
  3.5000000E-02  0.0000000E+00
  3.5500001E-02  0.0000000E+00
  3.5999998E-02  0.0000000E+00
  3.6499999E-02  0.0000000E+00
  3.7000000E-02  0.0000000E+00
  3.7500001E-02  0.0000000E+00
  3.7999999E-02  0.0000000E+00
  3.8500000E-02  0.0000000E+00
  3.9000001E-02  0.0000000E+00
  3.9500002E-02  0.0000000E+00
  3.9999999E-02  0.0000000E+00
  4.0500000E-02  0.0000000E+00
  4.1000001E-02  0.0000000E+00
  4.1499998E-02  0.0000000E+00
  4.1999999E-02  0.0000000E+00
  4.2500000E-02  0.0000000E+00
  4.3000001E-02  0.0000000E+00
  4.3499999E-02  0.0000000E+00
  4.4000000E-02  0.0000000E+00
  4.4500001E-02  0.0000000E+00
  4.5000002E-02  0.0000000E+00
  4.5499999E-02  0.0000000E+00
  4.6000000E-02  0.0000000E+00
  4.6500001E-02  0.0000000E+00
  4.6999998E-02  0.0000000E+00
  4.7499999E-02  0.0000000E+00
  4.8000000E-02  0.0000000E+00
  4.8500001E-02  0.0000000E+00
  4.8999999E-02  0.0000000E+00
  4.9500000E-02  0.0000000E+00
  5.0000001E-02  0.0000000E+00
  5.0500002E-02  0.0000000E+00
  5.0999999E-02  0.0000000E+00
  5.1500000E-02  0.0000000E+00
  5.2000001E-02  0.0000000E+00
  5.2499998E-02  0.0000000E+00
  5.2999999E-02  0.0000000E+00
  5.3500000E-02  0.0000000E+00
  5.4000001E-02  0.0000000E+00
  5.4499999E-02  0.0000000E+00
  5.5000000E-02  0.0000000E+00
  5.5500001E-02  0.0000000E+00
  5.6000002E-02  0.0000000E+00
  5.6499999E-02  0.0000000E+00
  5.7000000E-02  0.0000000E+00
  5.7500001E-02  0.0000000E+00
  5.7999998E-02  0.0000000E+00
  5.8499999E-02  0.0000000E+00
  5.9000000E-02  0.0000000E+00
  5.9500001E-02  0.0000000E+00
  5.9999999E-02  0.0000000E+00
  6.0500000E-02  0.0000000E+00
  6.1000001E-02  0.0000000E+00
  6.1500002E-02  0.0000000E+00
  6.1999999E-02  0.0000000E+00
  6.2500000E-02  0.0000000E+00
  6.3000001E-02  0.0000000E+00
  6.3500002E-02  0.0000000E+00
  6.4000003E-02  0.0000000E+00
  6.4499997E-02  0.0000000E+00
  6.4999998E-02  0.0000000E+00
  6.5499999E-02  0.0000000E+00
  6.6000000E-02  0.0000000E+00
  6.6500001E-02  0.0000000E+00
  6.7000002E-02  0.0000000E+00
  6.7500003E-02  0.0000000E+00
  6.8000004E-02  0.0000000E+00
  6.8499997E-02  0.0000000E+00
  6.8999998E-02  0.0000000E+00
  6.9499999E-02  0.0000000E+00
  7.0000000E-02  0.0000000E+00
  7.0500001E-02  0.0000000E+00
  7.1000002E-02  0.0000000E+00
  7.1500003E-02  0.0000000E+00
  7.1999997E-02  0.0000000E+00
  7.2499998E-02  0.0000000E+00
  7.2999999E-02  0.0000000E+00
  7.3500000E-02  0.0000000E+00
  7.4000001E-02  0.0000000E+00
  7.4500002E-02  0.0000000E+00
  7.5000003E-02  0.0000000E+00
  7.5499997E-02  0.0000000E+00
  7.5999998E-02  0.0000000E+00
  7.6499999E-02  0.0000000E+00
  7.7000000E-02  0.0000000E+00
  7.7500001E-02  0.0000000E+00
  7.8000002E-02  0.0000000E+00
  7.8500003E-02  0.0000000E+00
  7.9000004E-02  0.0000000E+00
  7.9499997E-02  0.0000000E+00
  7.9999998E-02  0.0000000E+00
  8.0499999E-02  0.0000000E+00
  8.1000000E-02  0.0000000E+00
  8.1500001E-02  0.0000000E+00
  8.2000002E-02  0.0000000E+00
  8.2500003E-02  0.0000000E+00
  8.2999997E-02  0.0000000E+00
  8.3499998E-02  0.0000000E+00
  8.3999999E-02  0.0000000E+00
  8.4500000E-02  0.0000000E+00
  8.5000001E-02  0.0000000E+00
  8.5500002E-02  0.0000000E+00
  8.6000003E-02  0.0000000E+00
  8.6499996E-02  0.0000000E+00
  8.6999997E-02  0.0000000E+00
  8.7499999E-02  0.0000000E+00
  8.8000000E-02  0.0000000E+00
  8.8500001E-02  0.0000000E+00
  8.9000002E-02  0.0000000E+00
  8.9500003E-02  0.0000000E+00
  9.0000004E-02  0.0000000E+00
  9.0499997E-02  0.0000000E+00
  9.0999998E-02  0.0000000E+00
  9.1499999E-02  0.0000000E+00
  9.2000000E-02  0.0000000E+00
  9.2500001E-02  0.0000000E+00
  9.3000002E-02  0.0000000E+00
  9.3500003E-02  0.0000000E+00
  9.3999997E-02  0.0000000E+00
  9.4499998E-02  2.0979586E-37
  9.4999999E-02  3.7448645E-37
  9.5500000E-02  5.2024853E-37
  9.6000001E-02  6.0350710E-37
  9.6500002E-02  4.1390559E-37
  9.7000003E-02  0.0000000E+00
  9.7499996E-02 -4.9613947E-37
  9.7999997E-02 -9.6829015E-37
  9.8499998E-02 -2.3520780E-36
  9.8999999E-02 -6.3482262E-36
  9.9500000E-02 -7.7791589E-36
  0.1000000     -7.9732367E-36
  0.1005000     -6.4111615E-36
  0.1010000     -4.6358365E-36
  0.1015000     -1.2983421E-36
  0.1020000      9.8170302E-36
  0.1025000      1.5798679E-35
  0.1030000      1.6242590E-35
  0.1035000      2.9547230E-35
  0.1040000      3.0883316E-35
  0.1045000     -1.0906191E-35
  0.1050000     -1.2450477E-35
  0.1055000      6.0186990E-36
  0.1060000     -9.7190955E-36
  0.1065000     -3.8861436E-35
  0.1070000     -1.4572676E-35
  0.1075000     -6.0299514E-35
  0.1080000     -5.6221312E-35
  0.1085000     -3.3497187E-35
  0.1090000     -2.8662714E-35
  0.1095000      1.2902039E-35
  0.1100000      9.9787080E-36
  0.1105000      1.8730786E-35
  0.1110000      1.9179829E-35
  0.1115000      6.3459028E-35
  0.1120000     -1.5072525E-34
  0.1125000      3.2888053E-35
  0.1130000     -1.6407791E-34
  0.1135000     -2.2023865E-34
  0.1140000     -4.0274989E-34
  0.1145000     -9.9638024E-34
  0.1150000     -8.5853764E-34
  0.1155000     -7.3230121E-34
  0.1160000     -6.7119823E-34
  0.1165000     -6.9205078E-35
  0.1170000     -1.5946938E-35
  0.1175000      5.9942530E-34
  0.1180000      4.8216386E-34
  0.1185000     -2.8509377E-34
  0.1190000      6.9285607E-34
  0.1195000      1.0532547E-33
  0.1200000      1.2023542E-33
  0.1205000      1.5075359E-33
  0.1210000      6.7488097E-34
  0.1215000      8.7328972E-34
  0.1220000      1.8161709E-33
  0.1225000     -6.9190029E-34
  0.1230000     -1.2431802E-33
  0.1235000     -1.8928396E-33
  0.1240000     -2.5395964E-33
  0.1245000     -2.9605902E-33
  0.1250000     -3.1172420E-33
  0.1255000     -1.8542329E-33
  0.1260000     -2.0117473E-33
  0.1265000     -1.9872610E-33
  0.1270000     -1.6292038E-33
  0.1275000     -6.7245688E-36
  0.1280000      1.4659110E-33
  0.1285000      1.0840954E-33
  0.1290000      6.3560568E-34
  0.1295000     -5.4387653E-34
  0.1300000     -1.4706545E-33
  0.1305000     -2.3223538E-33
  0.1310000     -1.7441605E-33
  0.1315000     -2.9337747E-33
  0.1320000     -1.5272544E-33
  0.1325000      1.5668416E-34
  0.1330000      3.8140553E-34
  0.1335000      2.7868199E-33
  0.1340000      5.0058262E-33
  0.1345000      1.0515929E-32
  0.1350000      1.7471727E-32
  0.1355000      2.4613575E-32
  0.1360000      3.0851969E-32
  0.1365000      3.6140500E-32
  0.1370000      3.8440408E-32
  0.1375000      3.7693287E-32
  0.1380000      3.4023644E-32
  0.1385000      2.5769572E-32
  0.1390000      1.2003328E-32
  0.1395000     -6.9432021E-33
  0.1400000     -3.0799069E-32
  0.1405000     -5.6298527E-32
  0.1410000     -8.2463497E-32
  0.1415000     -1.0726461E-31
  0.1420000     -1.2884528E-31
  0.1425000     -1.4436489E-31
  0.1430000     -1.5199251E-31
  0.1435000     -1.4935750E-31
  0.1440000     -1.3501246E-31
  0.1445000     -1.0767136E-31
  0.1450000     -6.7048534E-32
  0.1455000     -1.4172796E-32
  0.1460000      4.9967120E-32
  0.1465000      1.2246737E-31
  0.1470000      1.9944453E-31
  0.1475000      2.7615066E-31
  0.1480000      3.4628098E-31
  0.1485000      4.0414192E-31
  0.1490000      4.4290572E-31
  0.1495000      4.5591393E-31
  0.1500000      4.3781489E-31
  0.1505000      3.8442744E-31
  0.1510000      2.9316618E-31
  0.1515000      1.6422562E-31
  0.1520000      2.9720315E-34
  0.1525000     -1.9263153E-31
  0.1530000     -4.0558166E-31
  0.1535000     -6.2657662E-31
  0.1540000     -8.4116702E-31
  0.1545000     -1.0329487E-30
  0.1550000     -1.1856946E-30
  0.1555000     -1.2793211E-30
  0.1560000     -1.2987333E-30
  0.1565000     -1.2300115E-30
  0.1570000     -1.0629455E-30
  0.1575000     -7.9228752E-31
  0.1580000     -4.1897943E-31
  0.1585000      4.9390417E-32
  0.1590000      5.9760948E-31
  0.1595000      1.2029846E-30
  0.1600000      1.8355685E-30
  0.1605000      2.4589862E-30
  0.1610000      3.0317528E-30
  0.1615000      3.5091211E-30
  0.1620000      3.8451688E-30
  0.1625000      3.9956076E-30
  0.1630000      3.9209075E-30
  0.1635000      3.5884690E-30
  0.1640000      2.9765702E-30
  0.1645000      2.0767348E-30
  0.1650000      8.9640632E-31
  0.1655000     -5.3904532E-31
  0.1660000     -2.1851469E-30
  0.1665000     -3.9779090E-30
  0.1670000     -5.8344754E-30
  0.1675000     -7.6551224E-30
  0.1680000     -9.3267935E-30
  0.1685000     -1.0727745E-29
  0.1690000     -1.1733648E-29
  0.1695000     -1.2224876E-29
  0.1700000     -1.2094745E-29
  0.1705000     -1.1258240E-29
  0.1710000     -9.6607392E-30
  0.1715000     -7.2862135E-30
  0.1720000     -4.1640780E-30
  0.1725000     -3.7408631E-31
  0.1730000      3.9516050E-30
  0.1735000      8.6294300E-30
  0.1740000      1.3429494E-29
  0.1745000      1.8084628E-29
  0.1750000      2.2303197E-29
  0.1755000      2.5785915E-29
  0.1760000      2.8245601E-29
  0.1765000      2.9428459E-29
  0.1770000      2.9136079E-29
  0.1775000      2.7245989E-29
  0.1780000      2.3729302E-29
  0.1785000      1.8662884E-29
  0.1790000      1.2235544E-29
  0.1795000      4.7452811E-30
  0.1800000     -3.4117405E-30
  0.1805000     -1.1761584E-29
  0.1810000     -1.9781836E-29
  0.1815000     -2.6936763E-29
  0.1820000     -3.2719209E-29
  0.1825000     -3.6692152E-29
  0.1830000     -3.8530082E-29
  0.1835000     -3.8054110E-29
  0.1840000     -3.5258177E-29
  0.1845000     -3.0323499E-29
  0.1850000     -2.3616359E-29
  0.1855000     -1.5671680E-29
  0.1860000     -7.1594023E-30
  0.1865000      1.1630982E-30
  0.1870000      8.5100728E-30
  0.1875000      1.4133846E-29
  0.1880000      1.7389729E-29
  0.1885000      1.7799989E-29
  0.1890000      1.5101665E-29
  0.1895000      9.2808111E-30
  0.1900000      5.8286610E-31
  0.1905000     -1.0499524E-29
  0.1910000     -2.3262324E-29
  0.1915000     -3.6848526E-29
  0.1920000     -5.0321838E-29
  0.1925000     -6.2745666E-29
  0.1930000     -7.3264855E-29
  0.1935000     -8.1173686E-29
  0.1940000     -8.5960128E-29
  0.1945000     -8.7323933E-29
  0.1950000     -8.5156870E-29
  0.1955000     -7.9486301E-29
  0.1960000     -7.0386480E-29
  0.1965000     -5.7864336E-29
  0.1970000     -4.1737731E-29
  0.1975000     -2.1515579E-29
  0.1980000      3.6856126E-30
  0.1985000      3.5180321E-29
  0.1990000      7.4676068E-29
  0.1995000      1.2415161E-28
  0.2000000      1.8563477E-28
  0.2005000      2.6088657E-28
  0.2010000      3.5100073E-28
  0.2015000      4.5594268E-28
  0.2020000      5.7406839E-28
  0.2025000      7.0167011E-28
  0.2030000      8.3260446E-28
  0.2035000      9.5806666E-28
  0.2040000      1.0665686E-27
  0.2045000      1.1441757E-27
  0.2050000      1.1750344E-27
  0.2055000      1.1422216E-27
  0.2060000      1.0288953E-27
  0.2065000      8.1972432E-28
  0.2070000      5.0251648E-28
  0.2075000      6.9953525E-29
  0.2080000     -4.7867819E-28
  0.2085000     -1.1359463E-27
  0.2090000     -1.8850124E-27
  0.2095000     -2.6988873E-27
  0.2100000     -3.5402718E-27
  0.2105000     -4.3621535E-27
  0.2110000     -5.1092206E-27
  0.2115000     -5.7201025E-27
  0.2120000     -6.1304180E-27
  0.2125000     -6.2765464E-27
  0.2130000     -6.0999344E-27
  0.2135000     -5.5517230E-27
  0.2140000     -4.5973804E-27
  0.2145000     -3.2211567E-27
  0.2150000     -1.4298278E-27
  0.2155000      7.4438049E-28
  0.2160000      3.2421906E-27
  0.2165000      5.9770100E-27
  0.2170000      8.8364154E-27
  0.2175000      1.1685243E-26
  0.2180000      1.4370425E-26
  0.2185000      1.6727293E-26
  0.2190000      1.8587247E-26
  0.2195000      1.9786391E-26
  0.2200000      2.0174543E-26
  0.2205000      1.9624497E-26
  0.2210000      1.8040764E-26
  0.2215000      1.5367312E-26
  0.2220000      1.1594000E-26
  0.2225000      6.7610726E-27
  0.2230000      9.6179198E-28
  0.2235000     -5.6576650E-27
  0.2240000     -1.2900128E-26
  0.2245000     -2.0522146E-26
  0.2250000     -2.8240604E-26
  0.2255000     -3.5741248E-26
  0.2260000     -4.2688857E-26
  0.2265000     -4.8738400E-26
  0.2270000     -5.3546880E-26
  0.2275000     -5.6785622E-26
  0.2280000     -5.8152188E-26
  0.2285000     -5.7382001E-26
  0.2290000     -5.4259086E-26
  0.2295000     -4.8626049E-26
  0.2300000     -4.0392593E-26
  0.2305000     -2.9543463E-26
  0.2310000     -1.6144387E-26
  0.2315000     -3.4721857E-28
  0.2320000      1.7606536E-26
  0.2325000      3.7383400E-26
  0.2330000      5.8557774E-26
  0.2335000      8.0612543E-26
  0.2340000      1.0294381E-25
  0.2345000      1.2486559E-25
  0.2350000      1.4561930E-25
  0.2355000      1.6438576E-25
  0.2360000      1.8029999E-25
  0.2365000      1.9247078E-25
  0.2370000      2.0000323E-25
  0.2375000      2.0202443E-25
  0.2380000      1.9771364E-25
  0.2385000      1.8633428E-25
  0.2390000      1.6726612E-25
  0.2395000      1.4004252E-25
  0.2400000      1.0438159E-25
  0.2405000      6.0220890E-26
  0.2410000      7.7443615E-27
  0.2415000     -5.2591193E-26
  0.2420000     -1.2003849E-25
  0.2425000     -1.9354595E-25
  0.2430000     -2.7175376E-25
  0.2435000     -3.5299960E-25
  0.2440000     -4.3532811E-25
  0.2445000     -5.1651067E-25
  0.2450000     -5.9407769E-25
  0.2455000     -6.6535181E-25
  0.2460000     -7.2749270E-25
  0.2465000     -7.7755214E-25
  0.2470000     -8.1252491E-25
  0.2475000     -8.2941417E-25
  0.2480000     -8.2530273E-25
  0.2485000     -7.9742853E-25
  0.2490000     -7.4326110E-25
  0.2495000     -6.6059414E-25
  0.2500000     -5.4763326E-25
  0.2505000     -4.0310371E-25
  0.2510000     -2.2634751E-25
  0.2515000     -1.7438098E-26
  0.2520000      2.2271153E-25
  0.2525000      4.9222924E-25
  0.2530000      7.8818766E-25
  0.2535000      1.1064951E-24
  0.2540000      1.4418232E-24
  0.2545000      1.7875438E-24
  0.2550000      2.1356920E-24
  0.2555000      2.4769883E-24
  0.2560000      2.8008903E-24
  0.2565000      3.0957079E-24
  0.2570000      3.3487473E-24
  0.2575000      3.5465924E-24
  0.2580000      3.6753495E-24
  0.2585000      3.7210565E-24
  0.2590000      3.6700803E-24
  0.2595000      3.5096138E-24
  0.2600000      3.2281938E-24
  0.2605000      2.8162563E-24
  0.2610000      2.2667074E-24
  0.2615000      1.5754792E-24
  0.2620000      7.4208407E-25
  0.2625000     -2.2987892E-25
  0.2630000     -1.3323326E-24
  0.2635000     -2.5523658E-24
  0.2640000     -3.8719644E-24
  0.2645000     -5.2679402E-24
  0.2650000     -6.7119520E-24
  0.2655000     -8.1706536E-24
  0.2660000     -9.6060744E-24
  0.2665000     -1.0976082E-23
  0.2670000     -1.2235025E-23
  0.2675000     -1.3334614E-23
  0.2680000     -1.4224841E-23
  0.2685000     -1.4855142E-23
  0.2690000     -1.5175661E-23
  0.2695000     -1.5138645E-23
  0.2700000     -1.4699915E-23
  0.2705000     -1.3820479E-23
  0.2710000     -1.2468146E-23
  0.2715000     -1.0619247E-23
  0.2720000     -8.2602572E-24
  0.2725000     -5.3894488E-24
  0.2730000     -2.0183677E-24
  0.2735000      1.8267230E-24
  0.2740000      6.1037012E-24
  0.2745000      1.0753762E-23
  0.2750000      1.5700776E-23
  0.2755000      2.0851246E-23
  0.2760000      2.6094629E-23
  0.2765000      3.1304276E-23
  0.2770000      3.6338960E-23
  0.2775000      4.1045029E-23
  0.2780000      4.5259377E-23
  0.2785000      4.8812810E-23
  0.2790000      5.1534364E-23
  0.2795000      5.3256120E-23
  0.2800000      5.3818275E-23
  0.2805000      5.3075269E-23
  0.2810000      5.0901278E-23
  0.2815000      4.7196462E-23
  0.2820000      4.1892752E-23
  0.2825000      3.4959226E-23
  0.2830000      2.6407097E-23
  0.2835000      1.6293559E-23
  0.2840000      4.7247933E-24
  0.2845000     -8.1426167E-24
  0.2850000     -2.2101563E-23
  0.2855000     -3.6895889E-23
  0.2860000     -5.2223671E-23
  0.2865000     -6.7742648E-23
  0.2870000     -8.3076501E-23
  0.2875000     -9.7823492E-23
  0.2880000     -1.1156630E-22
  0.2885000     -1.2388325E-22
  0.2890000     -1.3435943E-22
  0.2895000     -1.4260009E-22
  0.2900000     -1.4824217E-22
  0.2905000     -1.5096692E-22
  0.2910000     -1.5051110E-22
  0.2915000     -1.4667637E-22
  0.2920000     -1.3933846E-22
  0.2925000     -1.2845258E-22
  0.2930000     -1.1405779E-22
  0.2935000     -9.6278126E-23
  0.2940000     -7.5320856E-23
  0.2945000     -5.1472893E-23
  0.2950000     -2.5093437E-23
  0.2955000      3.3945119E-24
  0.2960000      3.3516286E-23
  0.2965000      6.4757510E-23
  0.2970000      9.6578499E-23
  0.2975000      1.2842860E-22
  0.2980000      1.5976030E-22
  0.2985000      1.9004316E-22
  0.2990000      2.1877521E-22
  0.2995000      2.4549311E-22
  0.3000000      2.6978010E-22
  0.3005000      2.9126976E-22
  0.3010000      3.0964898E-22
  0.3015000      3.2465360E-22
  0.3020000      3.3606550E-22
  0.3025000      3.4370230E-22
  0.3030000      3.4740889E-22
  0.3035000      3.4704357E-22
  0.3040000      3.4246499E-22
  0.3045000      3.3351671E-22
  0.3050000      3.2001679E-22
  0.3055000      3.0174409E-22
  0.3060000      2.7843094E-22
  0.3065000      2.4975907E-22
  0.3070000      2.1536158E-22
  0.3075000      1.7482562E-22
  0.3080000      1.2771004E-22
  0.3085000      7.3563526E-23
  0.3090000      1.1951502E-23
  0.3095000     -5.7511646E-23
  0.3100000     -1.3511971E-22
  0.3105000     -2.2102966E-22
  0.3110000     -3.1521410E-22
  0.3115000     -4.1740769E-22
  0.3120000     -5.2705491E-22
  0.3125000     -6.4325768E-22
  0.3130000     -7.6472999E-22
  0.3135000     -8.8975220E-22
  0.3140000     -1.0161488E-21
  0.3145000     -1.1412596E-21
  0.3150000     -1.2619377E-21
  0.3155000     -1.3745641E-21
  0.3160000     -1.4750770E-21
  0.3165000     -1.5590215E-21
  0.3170000     -1.6216297E-21
  0.3175000     -1.6579163E-21
  0.3180000     -1.6627957E-21
  0.3185000     -1.6312268E-21
  0.3190000     -1.5583820E-21
  0.3195000     -1.4398216E-21
  0.3200000     -1.2716885E-21
  0.3205000     -1.0509243E-21
  0.3210000     -7.7546945E-22
  0.3215000     -4.4447604E-22
  0.3220000     -5.8511580E-23
  0.3225000      3.8026665E-22
  0.3230000      8.6793895E-22
  0.3235000      1.3987071E-21
  0.3240000      1.9648036E-21
  0.3245000      2.5564625E-21
  0.3250000      3.1619213E-21
  0.3255000      3.7675306E-21
  0.3260000      4.3578843E-21
  0.3265000      4.9160491E-21
  0.3270000      5.4238758E-21
  0.3275000      5.8623356E-21
  0.3280000      6.2120081E-21
  0.3285000      6.4535416E-21
  0.3290000      6.5682466E-21
  0.3295000      6.5386769E-21
  0.3300000      6.3492910E-21
  0.3305000      5.9870981E-21
  0.3310000      5.4422923E-21
  0.3315000      4.7088945E-21
  0.3320000      3.7853231E-21
  0.3325000      2.6749058E-21
  0.3330000      1.3862793E-21
  0.3335000     -6.6273170E-23
  0.3340000     -1.6627070E-21
  0.3345000     -3.3771739E-21
  0.3350000     -5.1781753E-21
  0.3355000     -7.0289220E-21
  0.3360000     -8.8878764E-21
  0.3365000     -1.0709425E-20
  0.3370000     -1.2444822E-20
  0.3375000     -1.4043239E-20
  0.3380000     -1.5453010E-20
  0.3385000     -1.6623004E-20
  0.3390000     -1.7504032E-20
  0.3395000     -1.8050438E-20
  0.3400000     -1.8221592E-20
  0.3405000     -1.7983448E-20
  0.3410000     -1.7309951E-20
  0.3415000     -1.6184420E-20
  0.3420000     -1.4600625E-20
  0.3425000     -1.2563778E-20
  0.3430000     -1.0091170E-20
  0.3435000     -7.2125125E-21
  0.3440000     -3.9699875E-21
  0.3445000     -4.1788769E-22
  0.3450000      3.3780939E-21
  0.3455000      7.3419574E-21
  0.3460000      1.1388892E-20
  0.3465000      1.5427067E-20
  0.3470000      1.9359745E-20
  0.3475000      2.3087679E-20
  0.3480000      2.6511728E-20
  0.3485000      2.9535579E-20
  0.3490000      3.2068584E-20
  0.3495000      3.4028449E-20
  0.3500000      3.5344051E-20
  0.3505000      3.5957764E-20
  0.3510000      3.5827755E-20
  0.3515000      3.4929721E-20
  0.3520000      3.3258360E-20
  0.3525000      3.0828178E-20
  0.3530000      2.7673767E-20
  0.3535000      2.3849554E-20
  0.3540000      1.9428849E-20
  0.3545000      1.4502363E-20
  0.3550000      9.1759468E-21
  0.3555000      3.5680363E-21
  0.3560000     -2.1936945E-21
  0.3565000     -7.9757886E-21
  0.3570000     -1.3643152E-20
  0.3575000     -1.9063057E-20
  0.3580000     -2.4109337E-20
  0.3585000     -2.8666652E-20
  0.3590000     -3.2634414E-20
  0.3595000     -3.5930273E-20
  0.3600000     -3.8493347E-20
  0.3605000     -4.0286656E-20
  0.3610000     -4.1298876E-20
  0.3615000     -4.1545214E-20
  0.3620000     -4.1067343E-20
  0.3625000     -3.9932500E-20
  0.3630000     -3.8231338E-20
  0.3635000     -3.6075088E-20
  0.3640000     -3.3591575E-20
  0.3645000     -3.0920464E-20
  0.3650000     -2.8207683E-20
  0.3655000     -2.5599471E-20
  0.3660000     -2.3235694E-20
  0.3665000     -2.1243428E-20
  0.3670000     -1.9729872E-20
  0.3675000     -1.8776602E-20
  0.3680000     -1.8432965E-20
  0.3685000     -1.8711541E-20
  0.3690000     -1.9584042E-20
  0.3695000     -2.0978273E-20
  0.3700000     -2.2777087E-20
  0.3705000     -2.4818645E-20
  0.3710000     -2.6898534E-20
  0.3715000     -2.8773445E-20
  0.3720000     -3.0167438E-20
  0.3725000     -3.0779077E-20
  0.3730000     -3.0291138E-20
  0.3735000     -2.8381346E-20
  0.3740000     -2.4734250E-20
  0.3745000     -1.9055120E-20
  0.3750000     -1.1083108E-20
  0.3755000     -6.0596533E-22
  0.3760000      1.2526842E-20
  0.3765000      2.8389789E-20
  0.3770000      4.6970427E-20
  0.3775000      6.8158080E-20
  0.3780000      9.1736256E-20
  0.3785000      1.1737674E-19
  0.3790000      1.4463627E-19
  0.3795000      1.7295883E-19
  0.3800000      2.0167882E-19
  0.3805000      2.3002890E-19
  0.3810000      2.5715290E-19
  0.3815000      2.8212122E-19
  0.3820000      3.0394982E-19
  0.3825000      3.2162338E-19
  0.3830000      3.3412038E-19
  0.3835000      3.4044148E-19
  0.3840000      3.3963979E-19
  0.3845000      3.3085030E-19
  0.3850000      3.1332180E-19
  0.3855000      2.8644833E-19
  0.3860000      2.4979588E-19
  0.3865000      2.0313148E-19
  0.3870000      1.4644376E-19
  0.3875000      7.9965146E-20
  0.3880000      4.1831780E-21
  0.3885000     -8.0148037E-20
  0.3890000     -1.7200713E-19
  0.3895000     -2.7010701E-19
  0.3900000     -3.7290765E-19
  0.3905000     -4.7863229E-19
  0.3910000     -5.8529118E-19
  0.3915000     -6.9071086E-19
  0.3920000     -7.9257401E-19
  0.3925000     -8.8845381E-19
  0.3930000     -9.7586715E-19
  0.3935000     -1.0523213E-18
  0.3940000     -1.1153634E-18
  0.3945000     -1.1626383E-18
  0.3950000     -1.1919375E-18
  0.3955000     -1.2012523E-18
  0.3960000     -1.1888279E-18
  0.3965000     -1.1532037E-18
  0.3970000     -1.0932610E-18
  0.3975000     -1.0082564E-18
  0.3980000     -8.9785648E-19
  0.3985000     -7.6215274E-19
  0.3990000     -6.0168983E-19
  0.3995000     -4.1746712E-19
  0.4000000     -2.1094094E-19
  0.4005000      1.5980464E-20
  0.4010000      2.6095424E-19
  0.4015000      5.2121602E-19
  0.4020000      7.9361192E-19
  0.4025000      1.0746267E-18
  0.4030000      1.3604236E-18
  0.4035000      1.6468827E-18
  0.4040000      1.9296370E-18
  0.4045000      2.2041334E-18
  0.4050000      2.4656622E-18
  0.4055000      2.7094076E-18
  0.4060000      2.9305082E-18
  0.4065000      3.1240821E-18
  0.4070000      3.2852955E-18
  0.4075000      3.4093972E-18
  0.4080000      3.4917668E-18
  0.4085000      3.5279708E-18
  0.4090000      3.5137995E-18
  0.4095000      3.4453481E-18
  0.4100000      3.3190374E-18
  0.4105000      3.1316986E-18
  0.4110000      2.8806397E-18
  0.4115000      2.5637007E-18
  0.4120000      2.1793482E-18
  0.4125000      1.7267589E-18
  0.4130000      1.2059062E-18
  0.4135000      6.1766755E-19
  0.4140000     -3.6071463E-20
  0.4145000     -7.5233447E-19
  0.4150000     -1.5268995E-18
  0.4155000     -2.3542356E-18
  0.4160000     -3.2273637E-18
  0.4165000     -4.1378085E-18
  0.4170000     -5.0754512E-18
  0.4175000     -6.0285444E-18
  0.4180000     -6.9836303E-18
  0.4185000     -7.9255417E-18
  0.4190000     -8.8374157E-18
  0.4195000     -9.7008409E-18
  0.4200000     -1.0495879E-17
  0.4205000     -1.1201294E-17
  0.4210000     -1.1794793E-17
  0.4215000     -1.2253269E-17
  0.4220000     -1.2553208E-17
  0.4225000     -1.2671061E-17
  0.4230000     -1.2583746E-17
  0.4235000     -1.2269156E-17
  0.4240000     -1.1706818E-17
  0.4245000     -1.0878422E-17
  0.4250000     -9.7685870E-18
  0.4255000     -8.3655108E-18
  0.4260000     -6.6616734E-18
  0.4265000     -4.6545970E-18
  0.4270000     -2.3474472E-18
  0.4275000      2.5030713E-19
  0.4280000      3.1222764E-18
  0.4285000      6.2447454E-18
  0.4290000      9.5861696E-18
  0.4295000      1.3107098E-17
  0.4300000      1.6759884E-17
  0.4305000      2.0488905E-17
  0.4310000      2.4230779E-17
  0.4315000      2.7914755E-17
  0.4320000      3.1463555E-17
  0.4325000      3.4794095E-17
  0.4330000      3.7818734E-17
  0.4335000      4.0446601E-17
  0.4340000      4.2585197E-17
  0.4345000      4.4142080E-17
  0.4350000      4.5026958E-17
  0.4355000      4.5153748E-17
  0.4360000      4.4442750E-17
  0.4365000      4.2823111E-17
  0.4370000      4.0235233E-17
  0.4375000      3.6633004E-17
  0.4380000      3.1986088E-17
  0.4385000      2.6282413E-17
  0.4390000      1.9529956E-17
  0.4395000      1.1758584E-17
  0.4400000      3.0214674E-18
  0.4405000     -6.6035780E-18
  0.4410000     -1.7013472E-17
  0.4415000     -2.8079880E-17
  0.4420000     -3.9648974E-17
  0.4425000     -5.1542805E-17
  0.4430000     -6.3560353E-17
  0.4435000     -7.5479708E-17
  0.4440000     -8.7060746E-17
  0.4445000     -9.8048378E-17
  0.4450000     -1.0817626E-16
  0.4455000     -1.1717160E-16
  0.4460000     -1.2475987E-16
  0.4465000     -1.3067003E-16
  0.4470000     -1.3464089E-16
  0.4475000     -1.3642687E-16
  0.4480000     -1.3580397E-16
  0.4485000     -1.3257676E-16
  0.4490000     -1.2658430E-16
  0.4495000     -1.1770633E-16
  0.4500000     -1.0586903E-16
  0.4505000     -9.1050364E-17
  0.4510000     -7.3284510E-17
  0.4515000     -5.2666150E-17
  0.4520000     -2.9352878E-17
  0.4525000     -3.5682628E-18
  0.4530000      2.4399161E-17
  0.4535000      5.4194720E-17
  0.4540000      8.5400264E-17
  0.4545000      1.1753764E-16
  0.4550000      1.5007267E-16
  0.4555000      1.8242231E-16
  0.4560000      2.1396099E-16
  0.4565000      2.4403165E-16
  0.4570000      2.7195390E-16
  0.4575000      2.9703691E-16
  0.4580000      3.1859207E-16
  0.4585000      3.3594573E-16
  0.4590000      3.4845461E-16
  0.4595000      3.5551921E-16
  0.4600000      3.5659912E-16
  0.4605000      3.5122819E-16
  0.4610000      3.3902846E-16
  0.4615000      3.1972347E-16
  0.4620000      2.9315093E-16
  0.4625000      2.5927467E-16
  0.4630000      2.1819334E-16
  0.4635000      1.7014814E-16
  0.4640000      1.1552800E-16
  0.4645000      5.4873577E-17
  0.4650000     -1.1123844E-17
  0.4655000     -8.1625534E-17
  0.4660000     -1.5565001E-16
  0.4665000     -2.3208245E-16
  0.4670000     -3.0968729E-16
  0.4675000     -3.8712241E-16
  0.4680000     -4.6295930E-16
  0.4685000     -5.3570218E-16
  0.4690000     -6.0381278E-16
  0.4695000     -6.6573672E-16
  0.4700000     -7.1993142E-16
  0.4705000     -7.6489569E-16
  0.4710000     -7.9920041E-16
  0.4715000     -8.2152037E-16
  0.4720000     -8.3066621E-16
  0.4725000     -8.2561339E-16
  0.4730000     -8.0553214E-16
  0.4735000     -7.6981811E-16
  0.4740000     -7.1811379E-16
  0.4745000     -6.5033305E-16
  0.4750000     -5.6667769E-16
  0.4755000     -4.6765266E-16
  0.4760000     -3.5407428E-16
  0.4765000     -2.2707540E-16
  0.4770000     -8.8101670E-17
  0.4775000      6.1094376E-17
  0.4780000      2.1846879E-16
  0.4785000      3.8170650E-16
  0.4790000      5.4824689E-16
  0.4795000      7.1531779E-16
  0.4800000      8.7997173E-16
  0.4805000      1.0391343E-15
  0.4810000      1.1896474E-15
  0.4815000      1.3283277E-15
  0.4820000      1.4520198E-15
  0.4825000      1.5576565E-15
  0.4830000      1.6423235E-15