  0.0000000E+00  0.0000000E+00
  5.0000002E-04  0.0000000E+00
  1.0000000E-03  0.0000000E+00
  1.5000000E-03  0.0000000E+00
  2.0000001E-03  0.0000000E+00
  2.4999999E-03  0.0000000E+00
  3.0000000E-03  0.0000000E+00
  3.5000001E-03  0.0000000E+00
  4.0000002E-03  0.0000000E+00
  4.4999998E-03  0.0000000E+00
  4.9999999E-03  0.0000000E+00
  5.5000000E-03  0.0000000E+00
  6.0000001E-03  0.0000000E+00
  6.5000001E-03  0.0000000E+00
  7.0000002E-03  0.0000000E+00
  7.4999998E-03  0.0000000E+00
  8.0000004E-03  0.0000000E+00
  8.5000005E-03  0.0000000E+00
  8.9999996E-03  0.0000000E+00
  9.4999997E-03  0.0000000E+00
  9.9999998E-03  0.0000000E+00
  1.0500000E-02  0.0000000E+00
  1.1000000E-02  0.0000000E+00
  1.1500000E-02  0.0000000E+00
  1.2000000E-02  0.0000000E+00
  1.2500000E-02  0.0000000E+00
  1.3000000E-02  0.0000000E+00
  1.3500000E-02  0.0000000E+00
  1.4000000E-02  0.0000000E+00
  1.4500000E-02  0.0000000E+00
  1.5000000E-02  0.0000000E+00
  1.5500000E-02  0.0000000E+00
  1.6000001E-02  0.0000000E+00
  1.6500000E-02  0.0000000E+00
  1.7000001E-02  0.0000000E+00
  1.7500000E-02  0.0000000E+00
  1.7999999E-02  0.0000000E+00
  1.8500000E-02  0.0000000E+00
  1.8999999E-02  0.0000000E+00
  1.9500000E-02  0.0000000E+00
  2.0000000E-02  0.0000000E+00
  2.0500001E-02  0.0000000E+00
  2.1000000E-02  0.0000000E+00
  2.1500001E-02  0.0000000E+00
  2.2000000E-02  0.0000000E+00
  2.2500001E-02  0.0000000E+00
  2.3000000E-02  0.0000000E+00
  2.3499999E-02  0.0000000E+00
  2.4000000E-02  0.0000000E+00
  2.4499999E-02  0.0000000E+00
  2.5000000E-02  0.0000000E+00
  2.5500000E-02  0.0000000E+00
  2.6000001E-02  0.0000000E+00
  2.6500000E-02  0.0000000E+00
  2.7000001E-02  0.0000000E+00
  2.7500000E-02  0.0000000E+00
  2.8000001E-02  0.0000000E+00
  2.8500000E-02  0.0000000E+00
  2.8999999E-02  0.0000000E+00
  2.9500000E-02  0.0000000E+00
  2.9999999E-02  0.0000000E+00
  3.0500000E-02  0.0000000E+00
  3.0999999E-02  0.0000000E+00
  3.1500001E-02  0.0000000E+00
  3.2000002E-02  0.0000000E+00
  3.2499999E-02  0.0000000E+00
  3.3000000E-02  0.0000000E+00
  3.3500001E-02  0.0000000E+00
  3.4000002E-02  0.0000000E+00
  3.4499999E-02  0.0000000E+00
  3.5000000E-02  0.0000000E+00
  3.5500001E-02  0.0000000E+00
  3.5999998E-02  0.0000000E+00
  3.6499999E-02  0.0000000E+00
  3.7000000E-02  0.0000000E+00
  3.7500001E-02  0.0000000E+00
  3.7999999E-02  0.0000000E+00
  3.8500000E-02  0.0000000E+00
  3.9000001E-02  0.0000000E+00
  3.9500002E-02  0.0000000E+00
  3.9999999E-02  0.0000000E+00
  4.0500000E-02  0.0000000E+00
  4.1000001E-02  0.0000000E+00
  4.1499998E-02  0.0000000E+00
  4.1999999E-02  0.0000000E+00
  4.2500000E-02  0.0000000E+00
  4.3000001E-02  0.0000000E+00
  4.3499999E-02  0.0000000E+00
  4.4000000E-02  0.0000000E+00
  4.4500001E-02  0.0000000E+00
  4.5000002E-02  0.0000000E+00
  4.5499999E-02  0.0000000E+00
  4.6000000E-02  0.0000000E+00
  4.6500001E-02  0.0000000E+00
  4.6999998E-02  0.0000000E+00
  4.7499999E-02  0.0000000E+00
  4.8000000E-02  0.0000000E+00
  4.8500001E-02  0.0000000E+00
  4.8999999E-02  0.0000000E+00
  4.9500000E-02  0.0000000E+00
  5.0000001E-02  0.0000000E+00
  5.0500002E-02  0.0000000E+00
  5.0999999E-02  0.0000000E+00
  5.1500000E-02  0.0000000E+00
  5.2000001E-02  0.0000000E+00
  5.2499998E-02  0.0000000E+00
  5.2999999E-02  0.0000000E+00
  5.3500000E-02  0.0000000E+00
  5.4000001E-02  0.0000000E+00
  5.4499999E-02  0.0000000E+00
  5.5000000E-02  0.0000000E+00
  5.5500001E-02  0.0000000E+00
  5.6000002E-02  0.0000000E+00
  5.6499999E-02  0.0000000E+00
  5.7000000E-02  0.0000000E+00
  5.7500001E-02  0.0000000E+00
  5.7999998E-02  0.0000000E+00
  5.8499999E-02  0.0000000E+00
  5.9000000E-02  0.0000000E+00
  5.9500001E-02  0.0000000E+00
  5.9999999E-02  0.0000000E+00
  6.0500000E-02  0.0000000E+00
  6.1000001E-02  0.0000000E+00
  6.1500002E-02  0.0000000E+00
  6.1999999E-02  0.0000000E+00
  6.2500000E-02  0.0000000E+00
  6.3000001E-02  0.0000000E+00
  6.3500002E-02  0.0000000E+00
  6.4000003E-02  0.0000000E+00
  6.4499997E-02  0.0000000E+00
  6.4999998E-02  0.0000000E+00
  6.5499999E-02  0.0000000E+00
  6.6000000E-02  0.0000000E+00
  6.6500001E-02  0.0000000E+00
  6.7000002E-02  0.0000000E+00
  6.7500003E-02  0.0000000E+00
  6.8000004E-02  0.0000000E+00
  6.8499997E-02  0.0000000E+00
  6.8999998E-02  0.0000000E+00
  6.9499999E-02  0.0000000E+00
  7.0000000E-02  0.0000000E+00
  7.0500001E-02  0.0000000E+00
  7.1000002E-02  0.0000000E+00
  7.1500003E-02  0.0000000E+00
  7.1999997E-02  0.0000000E+00
  7.2499998E-02  0.0000000E+00
  7.2999999E-02  0.0000000E+00
  7.3500000E-02  0.0000000E+00
  7.4000001E-02  0.0000000E+00
  7.4500002E-02  0.0000000E+00
  7.5000003E-02  0.0000000E+00
  7.5499997E-02  0.0000000E+00
  7.5999998E-02  0.0000000E+00
  7.6499999E-02  0.0000000E+00
  7.7000000E-02  0.0000000E+00
  7.7500001E-02  0.0000000E+00
  7.8000002E-02  0.0000000E+00
  7.8500003E-02  0.0000000E+00
  7.9000004E-02  0.0000000E+00
  7.9499997E-02  0.0000000E+00
  7.9999998E-02  0.0000000E+00
  8.0499999E-02  0.0000000E+00
  8.1000000E-02  0.0000000E+00
  8.1500001E-02  0.0000000E+00
  8.2000002E-02  0.0000000E+00
  8.2500003E-02  0.0000000E+00
  8.2999997E-02  0.0000000E+00
  8.3499998E-02  0.0000000E+00
  8.3999999E-02  0.0000000E+00
  8.4500000E-02  0.0000000E+00
  8.5000001E-02  0.0000000E+00
  8.5500002E-02  0.0000000E+00
  8.6000003E-02  0.0000000E+00
  8.6499996E-02  0.0000000E+00
  8.6999997E-02  0.0000000E+00
  8.7499999E-02  0.0000000E+00
  8.8000000E-02  0.0000000E+00
  8.8500001E-02  0.0000000E+00
  8.9000002E-02  0.0000000E+00
  8.9500003E-02  0.0000000E+00
  9.0000004E-02  0.0000000E+00
  9.0499997E-02  0.0000000E+00
  9.0999998E-02  0.0000000E+00
  9.1499999E-02  0.0000000E+00
  9.2000000E-02  0.0000000E+00
  9.2500001E-02  0.0000000E+00
  9.3000002E-02  0.0000000E+00
  9.3500003E-02  0.0000000E+00
  9.3999997E-02  0.0000000E+00
  9.4499998E-02  0.0000000E+00
  9.4999999E-02  0.0000000E+00
  9.5500000E-02  0.0000000E+00
  9.6000001E-02  0.0000000E+00
  9.6500002E-02  2.9011676E-37
  9.7000003E-02  3.7406636E-37
  9.7499996E-02  4.0684524E-37
  9.7999997E-02  3.6164240E-37
  9.8499998E-02  0.0000000E+00
  9.8999999E-02  6.1674963E-38
  9.9500000E-02 -2.8408501E-37
  0.1000000     -7.4014563E-37
  0.1005000     -3.3993616E-36
  0.1010000     -5.6516827E-36
  0.1015000     -3.5843431E-35
  0.1020000     -4.9886017E-35
  0.1025000     -1.6991521E-34
  0.1030000     -9.0798065E-35
  0.1035000     -1.0743963E-34
  0.1040000     -3.0260826E-35
  0.1045000     -8.7702992E-36
  0.1050000      1.5779755E-34
  0.1055000      1.4548649E-34
  0.1060000      2.0610528E-34
  0.1065000      3.1972930E-34
  0.1070000      3.2873905E-34
  0.1075000      3.2563051E-34
  0.1080000      2.5468522E-34
  0.1085000      1.2857588E-34
  0.1090000     -2.2055421E-35
  0.1095000     -1.9920478E-34
  0.1100000     -3.7730924E-34
  0.1105000     -5.5513387E-34
  0.1110000     -6.0905852E-34
  0.1115000     -8.0551366E-34
  0.1120000     -1.7910032E-33
  0.1125000     -1.5673759E-33
  0.1130000     -5.7004859E-34
  0.1135000      8.2023516E-34
  0.1140000      1.9868374E-33
  0.1145000      2.4875562E-33
  0.1150000      4.0895122E-33
  0.1155000      1.1512415E-34
  0.1160000      1.0098085E-33
  0.1165000      6.1770208E-34
  0.1170000     -4.4012139E-33
  0.1175000     -7.6157359E-34
  0.1180000     -6.1513560E-34
  0.1185000     -3.8528058E-33
  0.1190000     -3.8415725E-33
  0.1195000     -2.9244365E-33
  0.1200000     -1.5439545E-33
  0.1205000     -7.0856044E-35
  0.1210000     -8.1791531E-34
  0.1215000      9.3609873E-35
  0.1220000     -5.4015150E-34
  0.1225000     -6.1378438E-33
  0.1230000     -3.1873096E-33
  0.1235000     -3.2008924E-33
  0.1240000     -2.2733809E-33
  0.1245000     -9.0140663E-34
  0.1250000      1.4960113E-32
  0.1255000      3.2305906E-32
  0.1260000      4.4742451E-32
  0.1265000      5.4634462E-32
  0.1270000      6.0494912E-32
  0.1275000      6.1101961E-32
  0.1280000      4.9091480E-32
  0.1285000      3.3255817E-32
  0.1290000      1.0419784E-32
  0.1295000     -1.8054325E-32
  0.1300000     -5.0514478E-32
  0.1305000     -8.5002794E-32
  0.1310000     -1.1948490E-31
  0.1315000     -1.5265763E-31
  0.1320000     -1.8049655E-31
  0.1325000     -2.0253206E-31
  0.1330000     -2.1736837E-31
  0.1335000     -2.2114342E-31
  0.1340000     -2.1255449E-31
  0.1345000     -1.9170359E-31
  0.1350000     -1.5573235E-31
  0.1355000     -1.0267085E-31
  0.1360000     -3.3372097E-32
  0.1365000      5.3281292E-32
  0.1370000      1.5535153E-31
  0.1375000      2.7224790E-31
  0.1380000      4.0003013E-31
  0.1385000      5.3530630E-31
  0.1390000      6.7049666E-31
  0.1395000      7.9831056E-31
  0.1400000      9.0805688E-31
  0.1405000      9.9477206E-31
  0.1410000      1.0349835E-30
  0.1415000      1.0231067E-30
  0.1420000      9.4890333E-31
  0.1425000      8.0612121E-31
  0.1430000      5.8844015E-31
  0.1435000      2.9619916E-31
  0.1440000     -6.8520547E-32
  0.1445000     -4.9951828E-31
  0.1450000     -9.8578828E-31
  0.1455000     -1.5115451E-30
  0.1460000     -2.0573846E-30
  0.1465000     -2.6001277E-30
  0.1470000     -3.1127141E-30
  0.1475000     -3.5654019E-30
  0.1480000     -3.9261677E-30
  0.1485000     -4.1623134E-30
  0.1490000     -4.2396545E-30
  0.1495000     -4.1279833E-30
  0.1500000     -3.7979233E-30
  0.1505000     -3.2268742E-30
  0.1510000     -2.3996190E-30
  0.1515000     -1.3102654E-30
  0.1520000      3.4886345E-32
  0.1525000      1.6167127E-30
  0.1530000      3.4012461E-30
  0.1535000      5.3399176E-30
  0.1540000      7.3689947E-30
  0.1545000      9.4106045E-30
  0.1550000      1.1374116E-29
  0.1555000      1.3157839E-29
  0.1560000      1.4652337E-29
  0.1565000      1.5743362E-29
  0.1570000      1.6316179E-29
  0.1575000      1.6260253E-29
  0.1580000      1.5475080E-29
  0.1585000      1.3875359E-29
  0.1590000      1.1398278E-29
  0.1595000      8.0097989E-30
  0.1600000      3.7114325E-30
  0.1605000     -1.4538761E-30
  0.1610000     -7.3965625E-30
  0.1615000     -1.3976854E-29
  0.1620000     -2.1003149E-29
  0.1625000     -2.8232839E-29
  0.1630000     -3.5375593E-29
  0.1635000     -4.2099619E-29
  0.1640000     -4.8041438E-29
  0.1645000     -5.2817925E-29
  0.1650000     -5.6042010E-29
  0.1655000     -5.7339581E-29
  0.1660000     -5.6369406E-29
  0.1665000     -5.2843232E-29
  0.1670000     -4.6546739E-29
  0.1675000     -3.7359204E-29
  0.1680000     -2.5272637E-29
  0.1685000     -1.0407099E-29
  0.1690000      6.9770717E-30
  0.1695000      2.6471519E-29
  0.1700000      4.7518653E-29
  0.1705000      6.9416317E-29
  0.1710000      9.1329807E-29
  0.1715000      1.1231182E-28
  0.1720000      1.3133017E-28
  0.1725000      1.4730349E-28
  0.1730000      1.5914327E-28
  0.1735000      1.6580396E-28
  0.1740000      1.6633696E-28
  0.1745000      1.5994842E-28
  0.1750000      1.4605774E-28
  0.1755000      1.2435472E-28
  0.1760000      9.4851899E-29
  0.1765000      5.7927844E-29
  0.1770000      1.4359585E-29
  0.1775000     -3.4660973E-29
  0.1780000     -8.7530561E-29
  0.1785000     -1.4225851E-28
  0.1790000     -1.9651691E-28
  0.1795000     -2.4771554E-28
  0.1800000     -2.9310297E-28
  0.1805000     -3.2989052E-28
  0.1810000     -3.5539915E-28
  0.1815000     -3.6721973E-28
  0.1820000     -3.6338191E-28
  0.1825000     -3.4252317E-28
  0.1830000     -3.0404374E-28
  0.1835000     -2.4824134E-28
  0.1840000     -1.7640878E-28
  0.1845000     -9.0884688E-29
  0.1850000      4.9515106E-30
  0.1855000      1.0675220E-28
  0.1860000      2.0934346E-28
  0.1865000      3.0693938E-28
  0.1870000      3.9342464E-28
  0.1875000      4.6269701E-28
  0.1880000      5.0905160E-28
  0.1885000      5.2759637E-28
  0.1890000      5.1466400E-28
  0.1895000      4.6820166E-28
  0.1900000      3.8810671E-28
  0.1905000      2.7647293E-28
  0.1910000      1.3773412E-28
  0.1915000     -2.1336308E-29
  0.1920000     -1.9177343E-28
  0.1925000     -3.6273222E-28
  0.1930000     -5.2196231E-28
  0.1935000     -6.5643285E-28
  0.1940000     -7.5308594E-28
  0.1945000     -7.9969152E-28
  0.1950000     -7.8574985E-28
  0.1955000     -7.0340258E-28
  0.1960000     -5.4828467E-28
  0.1965000     -3.2026929E-28
  0.1970000     -2.4034619E-29
  0.1975000      3.3059471E-28
  0.1980000      7.2858060E-28
  0.1985000      1.1499136E-27
  0.1990000      1.5701828E-27
  0.1995000      1.9614790E-27
  0.2000000      2.2936194E-27
  0.2005000      2.5356497E-27
  0.2010000      2.6575746E-27
  0.2015000      2.6322542E-27
  0.2020000      2.4373570E-27
  0.2025000      2.0573030E-27
  0.2030000      1.4850486E-27
  0.2035000      7.2365532E-28
  0.2040000     -2.1251660E-28
  0.2045000     -1.2970535E-27
  0.2050000     -2.4912776E-27
  0.2055000     -3.7446592E-27
  0.2060000     -4.9958838E-27
  0.2065000     -6.1746023E-27
  0.2070000     -7.2038778E-27
  0.2075000     -8.0032681E-27
  0.2080000     -8.4925052E-27
  0.2085000     -8.5956118E-27
  0.2090000     -8.2454199E-27
  0.2095000     -7.3881862E-27
  0.2100000     -5.9882843E-27
  0.2105000     -4.0325518E-27
  0.2110000     -1.5342611E-27
  0.2115000      1.4637032E-27
  0.2120000      4.8865446E-27
  0.2125000      8.6265291E-27
  0.2130000      1.2543213E-26
  0.2135000      1.6465488E-26
  0.2140000      2.0194958E-26
  0.2145000      2.3511482E-26
  0.2150000      2.6180044E-26
  0.2155000      2.7959628E-26
  0.2160000      2.8613424E-26
  0.2165000      2.7920209E-26
  0.2170000      2.5686699E-26
  0.2175000      2.1760215E-26
  0.2180000      1.6041516E-26
  0.2185000      8.4966144E-27
  0.2190000     -8.3210371E-28
  0.2195000     -1.1817153E-26
  0.2200000     -2.4239204E-26
  0.2205000     -3.7783427E-26
  0.2210000     -5.2039416E-26
  0.2215000     -6.6504715E-26
  0.2220000     -8.0592606E-26
  0.2225000     -9.3643854E-26
  0.2230000     -1.0494271E-25
  0.2235000     -1.1373704E-25
  0.2240000     -1.1926195E-25
  0.2245000     -1.2076601E-25
  0.2250000     -1.1754119E-25
  0.2255000     -1.0895298E-25
  0.2260000     -9.4472577E-26
  0.2265000     -7.3708920E-26
  0.2270000     -4.6438504E-26
  0.2275000     -1.2634936E-26
  0.2280000      2.7505586E-26
  0.2285000      7.3541558E-26
  0.2290000      1.2476930E-25
  0.2295000      1.8021061E-25
  0.2300000      2.3860760E-25
  0.2305000      2.9842243E-25
  0.2310000      3.5784809E-25
  0.2315000      4.1482418E-25
  0.2320000      4.6706290E-25
  0.2325000      5.1208457E-25
  0.2330000      5.4726155E-25
  0.2335000      5.6987627E-25
  0.2340000      5.7718201E-25
  0.2345000      5.6648338E-25
  0.2350000      5.3522142E-25
  0.2355000      4.8106804E-25
  0.2360000      4.0203367E-25
  0.2365000      2.9657738E-25
  0.2370000      1.6373124E-25
  0.2375000      3.2149450E-27
  0.2380000     -1.8443599E-25
  0.2385000     -3.9775368E-25
  0.2390000     -6.3423189E-25
  0.2395000     -8.9022381E-25
  0.2400000     -1.1608711E-24
  0.2405000     -1.4400478E-24
  0.2410000     -1.7203579E-24
  0.2415000     -1.9931397E-24
  0.2420000     -2.2485522E-24
  0.2425000     -2.4756830E-24
  0.2430000     -2.6627434E-24
  0.2435000     -2.7972951E-24
  0.2440000     -2.8665507E-24
  0.2445000     -2.8577472E-24
  0.2450000     -2.7585636E-24
  0.2455000     -2.5575981E-24
  0.2460000     -2.2448871E-24
  0.2465000     -1.8124724E-24
  0.2470000     -1.2549578E-24
  0.2475000     -5.7011362E-25
  0.2480000      2.4060216E-25
  0.2485000      1.1714772E-24
  0.2490000      2.2121348E-24
  0.2495000      3.3471439E-24
  0.2500000      4.5557853E-24
  0.2505000      5.8119300E-24
  0.2510000      7.0841090E-24
  0.2515000      8.3357417E-24
  0.2520000      9.5255562E-24
  0.2525000      1.0608304E-23
  0.2530000      1.1535529E-23
  0.2535000      1.2256737E-23
  0.2540000      1.2720663E-23
  0.2545000      1.2876774E-23
  0.2550000      1.2676931E-23
  0.2555000      1.2077152E-23
  0.2560000      1.1039624E-23
  0.2565000      9.5345500E-24
  0.2570000      7.5421761E-24
  0.2575000      5.0546164E-24
  0.2580000      2.0776946E-24
  0.2585000     -1.3675774E-24
  0.2590000     -5.2436578E-24
  0.2595000     -9.4956307E-24
  0.2600000     -1.4050566E-23
  0.2605000     -1.8817617E-23
  0.2610000     -2.3688333E-23
  0.2615000     -2.8537864E-23
  0.2620000     -3.3226525E-23
  0.2625000     -3.7602226E-23
  0.2630000     -4.1503241E-23
  0.2635000     -4.4761795E-23
  0.2640000     -4.7208160E-23
  0.2645000     -4.8675353E-23
  0.2650000     -4.9003989E-23
  0.2655000     -4.8047691E-23
  0.2660000     -4.5678846E-23
  0.2665000     -4.1793980E-23
  0.2670000     -3.6319374E-23
  0.2675000     -2.9216555E-23
  0.2680000     -2.0486857E-23
  0.2685000     -1.0175820E-23
  0.2690000      1.6234964E-24
  0.2695000      1.4767724E-23
  0.2700000      2.9062298E-23
  0.2705000      4.4261095E-23
  0.2710000      6.0067511E-23
  0.2715000      7.6137668E-23
  0.2720000      9.2084661E-23
  0.2725000      1.0748420E-22
  0.2730000      1.2188220E-22
  0.2735000      1.3480387E-22
  0.2740000      1.4576382E-22
  0.2745000      1.5427750E-22
  0.2750000      1.5987412E-22
  0.2755000      1.6210960E-22
  0.2760000      1.6058069E-22
  0.2765000      1.5493873E-22
  0.2770000      1.4490376E-22
  0.2775000      1.3027766E-22
  0.2780000      1.1095639E-22
  0.2785000      8.6941288E-23
  0.2790000      5.8348141E-23
  0.2795000      2.5414861E-23
  0.2800000     -1.1494260E-23
  0.2805000     -5.1885934E-23
  0.2810000     -9.5138190E-23
  0.2815000     -1.4050582E-22
  0.2820000     -1.8712612E-22
  0.2825000     -2.3403057E-22
  0.2830000     -2.8015745E-22
  0.2835000     -3.2437117E-22
  0.2840000     -3.6548012E-22
  0.2845000     -4.0226035E-22
  0.2850000     -4.3348076E-22
  0.2855000     -4.5793141E-22
  0.2860000     -4.7444998E-22
  0.2865000     -4.8195216E-22
  0.2870000     -4.7946168E-22
  0.2875000     -4.6613950E-22
  0.2880000     -4.4131146E-22
  0.2885000     -4.0449531E-22
  0.2890000     -3.5542490E-22
  0.2895000     -2.9407190E-22
  0.2900000     -2.2066479E-22
  0.2905000     -1.3569999E-22
  0.2910000     -3.9955246E-23
  0.2915000      6.5508587E-23
  0.2920000      1.7934666E-22
  0.2925000      2.9993413E-22
  0.2930000      4.2537894E-22
  0.2935000      5.5353706E-22
  0.2940000      6.8203324E-22
  0.2945000      8.0829026E-22
  0.2950000      9.2955643E-22
  0.2955000      1.0429474E-21
  0.2960000      1.1454840E-21
  0.2965000      1.2341417E-21
  0.2970000      1.3058980E-21
  0.2975000      1.3577882E-21
  0.2980000      1.3869632E-21
  0.2985000      1.3907499E-21
  0.2990000      1.3667149E-21
  0.2995000      1.3127267E-21
  0.3000000      1.2270281E-21
  0.3005000      1.1082979E-21
  0.3010000      9.5572278E-22
  0.3015000      7.6905921E-22
  0.3020000      5.4869797E-22
  0.3025000      2.9572926E-22
  0.3030000      1.1989259E-23
  0.3035000     -2.9989091E-22
  0.3040000     -6.3644662E-22
  0.3045000     -9.9335445E-22
  0.3050000     -1.3654201E-21
  0.3055000     -1.7465824E-21
  0.3060000     -2.1299398E-21
  0.3065000     -2.5077915E-21
  0.3070000     -2.8717110E-21
  0.3075000     -3.2126352E-21
  0.3080000     -3.5209904E-21
  0.3085000     -3.7868373E-21
  0.3090000     -4.0000629E-21
  0.3095000     -4.1505661E-21
  0.3100000     -4.2285113E-21
  0.3105000     -4.2245810E-21
  0.3110000     -4.1302590E-21
  0.3115000     -3.9381096E-21
  0.3120000     -3.6421077E-21
  0.3125000     -3.2379286E-21
  0.3130000     -2.7232680E-21
  0.3135000     -2.0981101E-21
  0.3140000     -1.3650152E-21
  0.3145000     -5.2933203E-22
  0.3150000      4.0060596E-22
  0.3155000      1.4133580E-21
  0.3160000      2.4943276E-21
  0.3165000      3.6257612E-21
  0.3170000      4.7868663E-21
  0.3175000      5.9539948E-21
  0.3180000      7.1009368E-21
  0.3185000      8.1993260E-21
  0.3190000      9.2191161E-21
  0.3195000      1.0129196E-20
  0.3200000      1.0898018E-20
  0.3205000      1.1494398E-20
  0.3210000      1.1888321E-20
  0.3215000      1.2051803E-20
  0.3220000      1.1959838E-20
  0.3225000      1.1591267E-20
  0.3230000      1.0929693E-20
  0.3235000      9.9643372E-21
  0.3240000      8.6908636E-21
  0.3245000      7.1119745E-21
  0.3250000      5.2380732E-21
  0.3255000      3.0876289E-21
  0.3260000      6.8740017E-22
  0.3265000     -1.9274601E-21
  0.3270000     -4.7136911E-21
  0.3275000     -7.6202108E-21
  0.3280000     -1.0588830E-20
  0.3285000     -1.3555086E-20
  0.3290000     -1.6449404E-20
  0.3295000     -1.9198382E-20
  0.3300000     -2.1726338E-20
  0.3305000     -2.3957094E-20
  0.3310000     -2.5815727E-20
  0.3315000     -2.7230605E-20
  0.3320000     -2.8135421E-20
  0.3325000     -2.8471263E-20
  0.3330000     -2.8188603E-20
  0.3335000     -2.7249268E-20
  0.3340000     -2.5628167E-20
  0.3345000     -2.3314910E-20
  0.3350000     -2.0315155E-20
  0.3355000     -1.6651588E-20
  0.3360000     -1.2364555E-20
  0.3365000     -7.5124010E-21
  0.3370000     -2.1711302E-21
  0.3375000      3.5660289E-21
  0.3380000      9.5899645E-21
  0.3385000      1.5777132E-20
  0.3390000      2.1991616E-20
  0.3395000      2.8087732E-20
  0.3400000      3.3912996E-20
  0.3405000      3.9311277E-20
  0.3410000      4.4126699E-20
  0.3415000      4.8207233E-20
  0.3420000      5.1408987E-20
  0.3425000      5.3600331E-20
  0.3430000      5.4665872E-20
  0.3435000      5.4510653E-20
  0.3440000      5.3063798E-20
  0.3445000      5.0281870E-20
  0.3450000      4.6152158E-20
  0.3455000      4.0694827E-20
  0.3460000      3.3964802E-20
  0.3465000      2.6052829E-20
  0.3470000      1.7085608E-20
  0.3475000      7.2251957E-21
  0.3480000     -3.3326907E-21
  0.3485000     -1.4361124E-20
  0.3490000     -2.5605710E-20
  0.3495000     -3.6788880E-20
  0.3500000     -4.7615528E-20
  0.3505000     -5.7779154E-20
  0.3510000     -6.6969027E-20
  0.3515000     -7.4877778E-20
  0.3520000     -8.1209723E-20
  0.3525000     -8.5689275E-20
  0.3530000     -8.8069933E-20
  0.3535000     -8.8142763E-20
  0.3540000     -8.5744961E-20
  0.3545000     -8.0767989E-20
  0.3550000     -7.3164720E-20
  0.3555000     -6.2955695E-20
  0.3560000     -5.0234608E-20
  0.3565000     -3.5171842E-20
  0.3570000     -1.8016792E-20
  0.3575000      9.0178620E-22
  0.3580000      2.1177504E-20
  0.3585000      4.2330115E-20
  0.3590000      6.3811065E-20
  0.3595000      8.5012518E-20
  0.3600000      1.0527691E-19
  0.3605000      1.2391049E-19
  0.3610000      1.4019845E-19
  0.3615000      1.5342090E-19
  0.3620000      1.6287283E-19
  0.3625000      1.6788358E-19
  0.3630000      1.6783891E-19
  0.3635000      1.6220251E-19
  0.3640000      1.5053981E-19
  0.3645000      1.3253870E-19
  0.3650000      1.0803176E-19
  0.3655000      7.7017507E-20
  0.3660000      3.9676274E-20
  0.3665000     -3.6129104E-21
  0.3670000     -5.2261290E-20
  0.3675000     -1.0546296E-19
  0.3680000     -1.6219061E-19
  0.3685000     -2.2120001E-19
  0.3690000     -2.8103720E-19
  0.3695000     -3.4005346E-19
  0.3700000     -3.9642770E-19
  0.3705000     -4.4819489E-19
  0.3710000     -4.9328125E-19
  0.3715000     -5.2954878E-19
  0.3720000     -5.5484251E-19
  0.3725000     -5.6704710E-19
  0.3730000     -5.6414995E-19
  0.3735000     -5.4430501E-19
  0.3740000     -5.0590128E-19
  0.3745000     -4.4763644E-19
  0.3750000     -3.6858594E-19
  0.3755000     -2.6827440E-19
  0.3760000     -1.4674196E-19
  0.3765000     -4.6041378E-21
  0.3770000      1.5689557E-19
  0.3775000      3.3584350E-19
  0.3780000      5.2962550E-19
  0.3785000      7.3491337E-19
  0.3790000      9.4766784E-19
  0.3795000      1.1631595E-18
  0.3800000      1.3760081E-18
  0.3805000      1.5802574E-18
  0.3810000      1.7694514E-18
  0.3815000      1.9367516E-18
  0.3820000      2.0750671E-18
  0.3825000      2.1772124E-18
  0.3830000      2.2360805E-18
  0.3835000      2.2448445E-18
  0.3840000      2.1971578E-18
  0.3845000      2.0873779E-18
  0.3850000      1.9107949E-18
  0.3855000      1.6638562E-18
  0.3860000      1.3443898E-18
  0.3865000      9.5181636E-19
  0.3870000      4.8735812E-19
  0.3875000     -4.5817334E-20
  0.3880000     -6.4243980E-19
  0.3885000     -1.2950418E-18
  0.3890000     -1.9939069E-18
  0.3895000     -2.7270594E-18
  0.3900000     -3.4803355E-18
  0.3905000     -4.2374920E-18
  0.3910000     -4.9803817E-18
  0.3915000     -5.6892221E-18
  0.3920000     -6.3428846E-18
  0.3925000     -6.9193241E-18
  0.3930000     -7.3959774E-18
  0.3935000     -7.7503126E-18
  0.3940000     -7.9603519E-18
  0.3945000     -8.0053150E-18
  0.3950000     -7.8661989E-18
  0.3955000     -7.5264825E-18
  0.3960000     -6.9727454E-18
  0.3965000     -6.1953413E-18
  0.3970000     -5.1889801E-18
  0.3975000     -3.9533273E-18
  0.3980000     -2.4934838E-18
  0.3985000     -8.2043009E-19
  0.3990000      1.0486983E-18
  0.3995000      3.0903819E-18
  0.4000000      5.2746789E-18
  0.4005000      7.5653203E-18
  0.4010000      9.9199486E-18
  0.4015000      1.2290544E-17
  0.4020000      1.4624044E-17
  0.4025000      1.6863101E-17
  0.4030000      1.8947072E-17
  0.4035000      2.0813072E-17
  0.4040000      2.2397285E-17
  0.4045000      2.3636373E-17
  0.4050000      2.4468989E-17
  0.4055000      2.4837398E-17
  0.4060000      2.4689085E-17
  0.4065000      2.3978575E-17
  0.4070000      2.2669017E-17
  0.4075000      2.0733821E-17
  0.4080000      1.8158155E-17
  0.4085000      1.4940392E-17
  0.4090000      1.1093252E-17
  0.4095000      6.6447075E-18
  0.4100000      1.6388143E-18
  0.4105000     -3.8641068E-18
  0.4110000     -9.7872002E-18
  0.4115000     -1.6037720E-17
  0.4120000     -2.2507460E-17
  0.4125000     -2.9074131E-17
  0.4130000     -3.5602787E-17
  0.4135000     -4.1947914E-17
  0.4140000     -4.7955730E-17
  0.4145000     -5.3466936E-17
  0.4150000     -5.8319912E-17
  0.4155000     -6.2353854E-17
  0.4160000     -6.5412768E-17
  0.4165000     -6.7349072E-17
  0.4170000     -6.8027380E-17
  0.4175000     -6.7328803E-17
  0.4180000     -6.5154635E-17
  0.4185000     -6.1430098E-17
  0.4190000     -5.6107668E-17
  0.4195000     -4.9170686E-17
  0.4200000     -4.0635473E-17
  0.4205000     -3.0554030E-17
  0.4210000     -1.9015238E-17
  0.4215000     -6.1460789E-18
  0.4220000      7.8886321E-18
  0.4225000      2.2886666E-17
  0.4230000      3.8610045E-17
  0.4235000      5.4787640E-17
  0.4240000      7.1118216E-17
  0.4245000      8.7274893E-17
  0.4250000      1.0290997E-16
  0.4255000      1.1766117E-16
  0.4260000      1.3115789E-16
  0.4265000      1.4302873E-16
  0.4270000      1.5290896E-16
  0.4275000      1.6044847E-16
  0.4280000      1.6532077E-16
  0.4285000      1.6723081E-16
  0.4290000      1.6592375E-16
  0.4295000      1.6119251E-16
  0.4300000      1.5288607E-16
  0.4305000      1.4091574E-16
  0.4310000      1.2526150E-16
  0.4315000      1.0597715E-16
  0.4320000      8.3193942E-17
  0.4325000      5.7123022E-17
  0.4330000      2.8056848E-17
  0.4335000     -3.6321687E-18
  0.4340000     -3.7493702E-17
  0.4345000     -7.3002666E-17
  0.4350000     -1.0956692E-16
  0.4355000     -1.4653315E-16
  0.4360000     -1.8319666E-16
  0.4365000     -2.1881345E-16
  0.4370000     -2.5261077E-16
  0.4375000     -2.8380223E-16
  0.4380000     -3.1160156E-16
  0.4385000     -3.3524082E-16
  0.4390000     -3.5398267E-16
  0.4395000     -3.6714159E-16
  0.4400000     -3.7409769E-16
  0.4405000     -3.7431424E-16
  0.4410000     -3.6735271E-16
  0.4415000     -3.5288840E-16
  0.4420000     -3.3072327E-16
  0.4425000     -3.0079739E-16
  0.4430000     -2.6319807E-16
  0.4435000     -2.1816870E-16
  0.4440000     -1.6611069E-16
  0.4445000     -1.0758733E-16
  0.4450000     -4.3320484E-17
  0.4455000      2.5812884E-17
  0.4460000      9.8790002E-17
  0.4465000      1.7445176E-16
  0.4470000      2.5151886E-16
  0.4475000      3.2861035E-16
  0.4480000      4.0426201E-16
  0.4485000      4.7695261E-16
  0.4490000      5.4512907E-16
  0.4495000      6.0723406E-16
  0.4500000      6.6173538E-16
  0.4505000      7.0715980E-16
  0.4510000      7.4212135E-16
  0.4515000      7.6535303E-16
  0.4520000      7.7574014E-16
  0.4525000      7.7234815E-16
  0.4530000      7.5445182E-16
  0.4535000      7.2155878E-16
  0.4540000      6.7343365E-16
  0.4545000      6.1011370E-16
  0.4550000      5.3192594E-16
  0.4555000      4.3949358E-16
  0.4560000      3.3374260E-16
  0.4565000      2.1589995E-16
  0.4570000      8.7483760E-17
  0.4575000     -4.9706398E-17
  0.4580000     -1.9361023E-16
  0.4585000     -3.4193291E-16
  0.4590000     -4.9217411E-16
  0.4595000     -6.4166753E-16
  0.4600000     -7.8761803E-16
  0.4605000     -9.2714914E-16
  0.4610000     -1.0573581E-15
  0.4615000     -1.1753613E-15
  0.4620000     -1.2783520E-15
  0.4625000     -1.3636603E-15
  0.4630000     -1.4288059E-15
  0.4635000     -1.4715540E-15
  0.4640000     -1.4899744E-15
  0.4645000     -1.4824848E-15
  0.4650000     -1.4479028E-15
  0.4655000     -1.3854853E-15
  0.4660000     -1.2949666E-15
  0.4665000     -1.1765850E-15
  0.4670000     -1.0311024E-15
  0.4675000     -8.5981695E-16
  0.4680000     -6.6456246E-16
  0.4685000     -4.4770313E-16
  0.4690000     -2.1211236E-16
  0.4695000      3.8855621E-17
  0.4700000      3.0140307E-16
  0.4705000      5.7134109E-16
  0.4710000      8.4414901E-16
  0.4715000      1.1150415E-15
  0.4720000      1.3790421E-15
  0.4725000      1.6310706E-15
  0.4730000      1.8660329E-15
  0.4735000      2.0789043E-15
  0.4740000      2.2648342E-15
  0.4745000      2.4192451E-15
  0.4750000      2.5379261E-15
  0.4755000      2.6171236E-15
  0.4760000      2.6536323E-15
  0.4765000      2.6448830E-15
  0.4770000      2.5890153E-15
  0.4775000      2.4849336E-15
  0.4780000      2.3323798E-15
  0.4785000      2.1319546E-15
  0.4790000      1.8851595E-15
  0.4795000      1.5943948E-15
  0.4800000      1.2629603E-15
  0.4805000      8.9503367E-16
  0.4810000      4.9562614E-16
  0.4815000      7.0526048E-17
  0.4820000     -3.7376814E-16
  0.4825000     -8.3014375E-16
  0.4830000     -1.2909783E-15