  0.0000000E+00  0.0000000E+00
  5.0000002E-04  0.0000000E+00
  1.0000000E-03  0.0000000E+00
  1.5000000E-03  0.0000000E+00
  2.0000001E-03  0.0000000E+00
  2.4999999E-03  0.0000000E+00
  3.0000000E-03  0.0000000E+00
  3.5000001E-03  0.0000000E+00
  4.0000002E-03  0.0000000E+00
  4.4999998E-03  0.0000000E+00
  4.9999999E-03  0.0000000E+00
  5.5000000E-03  0.0000000E+00
  6.0000001E-03  0.0000000E+00
  6.5000001E-03  0.0000000E+00
  7.0000002E-03  0.0000000E+00
  7.4999998E-03  0.0000000E+00
  8.0000004E-03  0.0000000E+00
  8.5000005E-03  0.0000000E+00
  8.9999996E-03  0.0000000E+00
  9.4999997E-03  0.0000000E+00
  9.9999998E-03  0.0000000E+00
  1.0500000E-02  0.0000000E+00
  1.1000000E-02  0.0000000E+00
  1.1500000E-02  0.0000000E+00
  1.2000000E-02  0.0000000E+00
  1.2500000E-02  0.0000000E+00
  1.3000000E-02  0.0000000E+00
  1.3500000E-02  0.0000000E+00
  1.4000000E-02  0.0000000E+00
  1.4500000E-02  0.0000000E+00
  1.5000000E-02  0.0000000E+00
  1.5500000E-02  0.0000000E+00
  1.6000001E-02  0.0000000E+00
  1.6500000E-02  0.0000000E+00
  1.7000001E-02  0.0000000E+00
  1.7500000E-02  0.0000000E+00
  1.7999999E-02  0.0000000E+00
  1.8500000E-02  0.0000000E+00
  1.8999999E-02  0.0000000E+00
  1.9500000E-02  0.0000000E+00
  2.0000000E-02  0.0000000E+00
  2.0500001E-02  0.0000000E+00
  2.1000000E-02  0.0000000E+00
  2.1500001E-02  0.0000000E+00
  2.2000000E-02  0.0000000E+00
  2.2500001E-02  0.0000000E+00
  2.3000000E-02  0.0000000E+00
  2.3499999E-02  0.0000000E+00
  2.4000000E-02  0.0000000E+00
  2.4499999E-02  0.0000000E+00
  2.5000000E-02  0.0000000E+00
  2.5500000E-02  0.0000000E+00
  2.6000001E-02  0.0000000E+00
  2.6500000E-02  0.0000000E+00
  2.7000001E-02  0.0000000E+00
  2.7500000E-02  0.0000000E+00
  2.8000001E-02  0.0000000E+00
  2.8500000E-02  0.0000000E+00
  2.8999999E-02  0.0000000E+00
  2.9500000E-02  0.0000000E+00
  2.9999999E-02  0.0000000E+00
  3.0500000E-02  0.0000000E+00
  3.0999999E-02  0.0000000E+00
  3.1500001E-02  0.0000000E+00
  3.2000002E-02  0.0000000E+00
  3.2499999E-02  0.0000000E+00
  3.3000000E-02  0.0000000E+00
  3.3500001E-02  0.0000000E+00
  3.4000002E-02  0.0000000E+00
  3.4499999E-02  0.0000000E+00
  3.5000000E-02  0.0000000E+00
  3.5500001E-02  0.0000000E+00
  3.5999998E-02  0.0000000E+00
  3.6499999E-02  0.0000000E+00
  3.7000000E-02  0.0000000E+00
  3.7500001E-02  0.0000000E+00
  3.7999999E-02  0.0000000E+00
  3.8500000E-02  0.0000000E+00
  3.9000001E-02  0.0000000E+00
  3.9500002E-02  0.0000000E+00
  3.9999999E-02  0.0000000E+00
  4.0500000E-02  0.0000000E+00
  4.1000001E-02  0.0000000E+00
  4.1499998E-02  0.0000000E+00
  4.1999999E-02  0.0000000E+00
  4.2500000E-02  0.0000000E+00
  4.3000001E-02  0.0000000E+00
  4.3499999E-02  0.0000000E+00
  4.4000000E-02  0.0000000E+00
  4.4500001E-02  0.0000000E+00
  4.5000002E-02  0.0000000E+00
  4.5499999E-02  0.0000000E+00
  4.6000000E-02  0.0000000E+00
  4.6500001E-02  0.0000000E+00
  4.6999998E-02  0.0000000E+00
  4.7499999E-02  0.0000000E+00
  4.8000000E-02  0.0000000E+00
  4.8500001E-02  0.0000000E+00
  4.8999999E-02  0.0000000E+00
  4.9500000E-02  0.0000000E+00
  5.0000001E-02  0.0000000E+00
  5.0500002E-02  0.0000000E+00
  5.0999999E-02  0.0000000E+00
  5.1500000E-02  0.0000000E+00
  5.2000001E-02  0.0000000E+00
  5.2499998E-02  0.0000000E+00
  5.2999999E-02  0.0000000E+00
  5.3500000E-02  0.0000000E+00
  5.4000001E-02  0.0000000E+00
  5.4499999E-02  0.0000000E+00
  5.5000000E-02  0.0000000E+00
  5.5500001E-02  0.0000000E+00
  5.6000002E-02  0.0000000E+00
  5.6499999E-02  0.0000000E+00
  5.7000000E-02  0.0000000E+00
  5.7500001E-02  0.0000000E+00
  5.7999998E-02  0.0000000E+00
  5.8499999E-02  0.0000000E+00
  5.9000000E-02  0.0000000E+00
  5.9500001E-02  0.0000000E+00
  5.9999999E-02  0.0000000E+00
  6.0500000E-02  0.0000000E+00
  6.1000001E-02  0.0000000E+00
  6.1500002E-02  0.0000000E+00
  6.1999999E-02  0.0000000E+00
  6.2500000E-02  0.0000000E+00
  6.3000001E-02  0.0000000E+00
  6.3500002E-02  0.0000000E+00
  6.4000003E-02  0.0000000E+00
  6.4499997E-02  0.0000000E+00
  6.4999998E-02  0.0000000E+00
  6.5499999E-02  0.0000000E+00
  6.6000000E-02  0.0000000E+00
  6.6500001E-02  0.0000000E+00
  6.7000002E-02  0.0000000E+00
  6.7500003E-02  0.0000000E+00
  6.8000004E-02  0.0000000E+00
  6.8499997E-02  0.0000000E+00
  6.8999998E-02  0.0000000E+00
  6.9499999E-02  0.0000000E+00
  7.0000000E-02  0.0000000E+00
  7.0500001E-02  0.0000000E+00
  7.1000002E-02  0.0000000E+00
  7.1500003E-02  0.0000000E+00
  7.1999997E-02  0.0000000E+00
  7.2499998E-02  0.0000000E+00
  7.2999999E-02  0.0000000E+00
  7.3500000E-02  0.0000000E+00
  7.4000001E-02  0.0000000E+00
  7.4500002E-02  0.0000000E+00
  7.5000003E-02  0.0000000E+00
  7.5499997E-02  0.0000000E+00
  7.5999998E-02  0.0000000E+00
  7.6499999E-02  0.0000000E+00
  7.7000000E-02  0.0000000E+00
  7.7500001E-02  0.0000000E+00
  7.8000002E-02  0.0000000E+00
  7.8500003E-02  0.0000000E+00
  7.9000004E-02  0.0000000E+00
  7.9499997E-02  0.0000000E+00
  7.9999998E-02  0.0000000E+00
  8.0499999E-02  0.0000000E+00
  8.1000000E-02  0.0000000E+00
  8.1500001E-02  0.0000000E+00
  8.2000002E-02  0.0000000E+00
  8.2500003E-02  0.0000000E+00
  8.2999997E-02  0.0000000E+00
  8.3499998E-02  0.0000000E+00
  8.3999999E-02  0.0000000E+00
  8.4500000E-02  0.0000000E+00
  8.5000001E-02  0.0000000E+00
  8.5500002E-02  0.0000000E+00
  8.6000003E-02  0.0000000E+00
  8.6499996E-02  0.0000000E+00
  8.6999997E-02  0.0000000E+00
  8.7499999E-02  0.0000000E+00
  8.8000000E-02  0.0000000E+00
  8.8500001E-02  0.0000000E+00
  8.9000002E-02  0.0000000E+00
  8.9500003E-02  0.0000000E+00
  9.0000004E-02  0.0000000E+00
  9.0499997E-02  0.0000000E+00
  9.0999998E-02  0.0000000E+00
  9.1499999E-02  0.0000000E+00
  9.2000000E-02  0.0000000E+00
  9.2500001E-02  0.0000000E+00
  9.3000002E-02  0.0000000E+00
  9.3500003E-02  0.0000000E+00
  9.3999997E-02  0.0000000E+00
  9.4499998E-02  0.0000000E+00
  9.4999999E-02  0.0000000E+00
  9.5500000E-02  0.0000000E+00
  9.6000001E-02  0.0000000E+00
  9.6500002E-02  0.0000000E+00
  9.7000003E-02  0.0000000E+00
  9.7499996E-02  0.0000000E+00
  9.7999997E-02  0.0000000E+00
  9.8499998E-02  0.0000000E+00
  9.8999999E-02  0.0000000E+00
  9.9500000E-02  0.0000000E+00
  0.1000000      0.0000000E+00
  0.1005000      0.0000000E+00
  0.1010000      0.0000000E+00
  0.1015000      0.0000000E+00
  0.1020000      0.0000000E+00
  0.1025000      0.0000000E+00
  0.1030000      0.0000000E+00
  0.1035000      0.0000000E+00
  0.1040000      0.0000000E+00
  0.1045000      0.0000000E+00
  0.1050000      0.0000000E+00
  0.1055000      0.0000000E+00
  0.1060000      0.0000000E+00
  0.1065000      0.0000000E+00
  0.1070000      0.0000000E+00
  0.1075000      0.0000000E+00
  0.1080000      0.0000000E+00
  0.1085000      0.0000000E+00
  0.1090000      0.0000000E+00
  0.1095000      0.0000000E+00
  0.1100000      0.0000000E+00
  0.1105000      0.0000000E+00
  0.1110000      0.0000000E+00
  0.1115000      0.0000000E+00
  0.1120000      0.0000000E+00
  0.1125000      0.0000000E+00
  0.1130000      0.0000000E+00
  0.1135000      0.0000000E+00
  0.1140000      0.0000000E+00
  0.1145000      0.0000000E+00
  0.1150000      0.0000000E+00
  0.1155000      0.0000000E+00
  0.1160000      0.0000000E+00
  0.1165000      0.0000000E+00
  0.1170000      0.0000000E+00
  0.1175000      0.0000000E+00
  0.1180000      0.0000000E+00
  0.1185000      0.0000000E+00
  0.1190000      0.0000000E+00
  0.1195000      0.0000000E+00
  0.1200000      0.0000000E+00
  0.1205000      0.0000000E+00
  0.1210000      0.0000000E+00
  0.1215000      0.0000000E+00
  0.1220000      0.0000000E+00
  0.1225000      0.0000000E+00
  0.1230000      0.0000000E+00
  0.1235000      0.0000000E+00
  0.1240000      0.0000000E+00
  0.1245000      0.0000000E+00
  0.1250000      0.0000000E+00
  0.1255000      0.0000000E+00
  0.1260000      0.0000000E+00
  0.1265000      0.0000000E+00
  0.1270000      0.0000000E+00
  0.1275000      0.0000000E+00
  0.1280000      0.0000000E+00
  0.1285000      0.0000000E+00
  0.1290000      0.0000000E+00
  0.1295000      0.0000000E+00
  0.1300000      0.0000000E+00
  0.1305000      0.0000000E+00
  0.1310000      0.0000000E+00
  0.1315000      0.0000000E+00
  0.1320000      0.0000000E+00
  0.1325000      0.0000000E+00
  0.1330000      0.0000000E+00
  0.1335000      0.0000000E+00
  0.1340000     -1.3554347E-38
  0.1345000     -1.6860531E-38
  0.1350000     -1.9475032E-38
  0.1355000     -2.1011470E-38
  0.1360000     -2.1609637E-38
  0.1365000     -2.3567082E-38
  0.1370000     -2.4035281E-38
  0.1375000     -1.9829756E-38
  0.1380000     -1.8517941E-38
  0.1385000     -1.2991745E-38
  0.1390000      0.0000000E+00
  0.1395000      0.0000000E+00
  0.1400000      0.0000000E+00
  0.1405000      0.0000000E+00
  0.1410000      0.0000000E+00
  0.1415000      1.2496249E-38
  0.1420000      1.7177100E-38
  0.1425000      3.4531607E-38
  0.1430000      5.7197130E-38
  0.1435000      8.2846195E-38
  0.1440000      1.1098094E-37
  0.1445000      1.3962468E-37
  0.1450000      1.6680472E-37
  0.1455000      1.9001340E-37
  0.1460000      2.0663083E-37
  0.1465000      2.1367842E-37
  0.1470000      2.0825069E-37
  0.1475000      1.8626926E-37
  0.1480000      1.4603613E-37
  0.1485000      8.1543206E-38
  0.1490000      0.0000000E+00
  0.1495000     -1.2309595E-37
  0.1500000     -2.6390015E-37
  0.1505000     -4.2786866E-37
  0.1510000     -6.1067305E-37
  0.1515000     -8.0600105E-37
  0.1520000     -1.0049142E-36
  0.1525000     -1.1969593E-36
  0.1530000     -1.3697151E-36
  0.1535000     -1.5093192E-36
  0.1540000     -1.6009799E-36
  0.1545000     -1.6295506E-36
  0.1550000     -1.5803536E-36
  0.1555000     -1.4398811E-36
  0.1560000     -1.1967426E-36
  0.1565000     -8.4255615E-37
  0.1570000     -3.7284059E-37
  0.1575000      2.1212394E-37
  0.1580000      9.0652486E-37
  0.1585000      1.6983745E-36
  0.1590000      2.5690194E-36
  0.1595000      3.4928533E-36
  0.1600000      4.4372670E-36
  0.1605000      5.3628633E-36
  0.1610000      6.2239750E-36
  0.1615000      6.9695149E-36
  0.1620000      7.5441734E-36
  0.1625000      7.8899728E-36
  0.1630000      7.9483694E-36
  0.1635000      7.6624101E-36
  0.1640000      6.9796283E-36
  0.1645000      5.8550843E-36
  0.1650000      4.2547611E-36
  0.1655000      2.1591542E-36
  0.1660000     -4.3306149E-37
  0.1665000     -3.5014604E-36
  0.1670000     -7.0005682E-36
  0.1675000     -1.0857042E-35
  0.1680000     -1.4967613E-35
  0.1685000     -1.9198070E-35
  0.1690000     -2.3383520E-35
  0.1695000     -2.7330203E-35
  0.1700000     -3.0819060E-35
  0.1705000     -3.3611183E-35
  0.1710000     -3.5455300E-35
  0.1715000     -3.6097173E-35
  0.1720000     -3.5290854E-35
  0.1725000     -3.2811503E-35
  0.1730000     -2.8469360E-35
  0.1735000     -2.2124422E-35
  0.1740000     -1.3701166E-35
  0.1745000     -3.2026334E-36
  0.1750000      9.2768803E-36
  0.1755000      2.3541358E-35
  0.1760000      3.9285546E-35
  0.1765000      5.6091158E-35
  0.1770000      7.3427415E-35
  0.1775000      9.0656472E-35
  0.1780000      1.0704407E-34
  0.1785000      1.2177562E-34
  0.1790000      1.3397774E-34
  0.1795000      1.4274499E-34
  0.1800000      1.4717150E-34
  0.1805000      1.4638687E-34
  0.1810000      1.3959550E-34
  0.1815000      1.2611835E-34
  0.1820000      1.0543629E-34
  0.1825000      7.7233377E-35
  0.1830000      4.1438833E-35
  0.1835000     -1.7339785E-36
  0.1840000     -5.1753199E-35
  0.1845000     -1.0774069E-34
  0.1850000     -1.6845293E-34
  0.1855000     -2.3227233E-34
  0.1860000     -2.9721133E-34
  0.1865000     -3.6093118E-34
  0.1870000     -4.2077707E-34
  0.1875000     -4.7383158E-34
  0.1880000     -5.1698692E-34
  0.1885000     -5.4703691E-34
  0.1890000     -5.6078786E-34
  0.1895000     -5.5518754E-34
  0.1900000     -5.2746893E-34
  0.1905000     -4.7530586E-34
  0.1910000     -3.9697500E-34
  0.1915000     -2.9151796E-34
  0.1920000     -1.5889663E-34
  0.1925000     -1.3276381E-37
  0.1930000      1.8257619E-34
  0.1935000      3.8577465E-34
  0.1940000      6.0470777E-34
  0.1945000      8.3332999E-34
  0.1950000      1.0643693E-33
  0.1955000      1.2894507E-33
  0.1960000      1.4992830E-33
  0.1965000      1.6839048E-33
  0.1970000      1.8329899E-33
  0.1975000      1.9362014E-33
  0.1980000      1.9835863E-33
  0.1985000      1.9659983E-33
  0.1990000      1.8755337E-33
  0.1995000      1.7059637E-33
  0.2000000      1.4531466E-33
  0.2005000      1.1154004E-33
  0.2010000      6.9382351E-34
  0.2015000      1.9254309E-34
  0.2020000     -3.8111797E-34
  0.2025000     -1.0165689E-33
  0.2030000     -1.6999794E-33
  0.2035000     -2.4144151E-33
  0.2040000     -3.1400804E-33
  0.2045000     -3.8546660E-33
  0.2050000     -4.5338038E-33
  0.2055000     -5.1516102E-33
  0.2060000     -5.6813258E-33
  0.2065000     -6.0960233E-33
  0.2070000     -6.3693882E-33
  0.2075000     -6.4765433E-33
  0.2080000     -6.3949104E-33
  0.2085000     -6.1050956E-33
  0.2090000     -5.5917557E-33
  0.2095000     -4.8444521E-33
  0.2100000     -3.8584463E-33
  0.2105000     -2.6354132E-33
  0.2110000     -1.1840485E-33
  0.2115000      4.7946789E-34
  0.2120000      2.3311796E-33
  0.2125000      4.3392669E-33
  0.2130000      6.4641823E-33
  0.2135000      8.6590367E-33
  0.2140000      1.0870243E-32
  0.2145000      1.3038419E-32
  0.2150000      1.5099541E-32
  0.2155000      1.6986324E-32
  0.2160000      1.8629784E-32
  0.2165000      1.9960951E-32
  0.2170000      2.0912662E-32
  0.2175000      2.1421363E-32
  0.2180000      2.1428868E-32
  0.2185000      2.0884002E-32
  0.2190000      1.9744054E-32
  0.2195000      1.7976015E-32
  0.2200000      1.5557575E-32
  0.2205000      1.2477836E-32
  0.2210000      8.7378044E-33
  0.2215000      4.3506651E-33
  0.2220000     -6.5807801E-34
  0.2225000     -6.2505200E-33
  0.2230000     -1.2376264E-32
  0.2235000     -1.8972191E-32
  0.2240000     -2.5962042E-32
  0.2245000     -3.3255723E-32
  0.2250000     -4.0748335E-32
  0.2255000     -4.8318872E-32
  0.2260000     -5.5828729E-32
  0.2265000     -6.3120021E-32
  0.2270000     -7.0014001E-32
  0.2275000     -7.6309655E-32
  0.2280000     -8.1782821E-32
  0.2285000     -8.6186088E-32
  0.2290000     -8.9249796E-32
  0.2295000     -9.0684329E-32
  0.2300000     -9.0184132E-32
  0.2305000     -8.7433487E-32
  0.2310000     -8.2114375E-32
  0.2315000     -7.3916319E-32
  0.2320000     -6.2548237E-32
  0.2325000     -4.7752160E-32
  0.2330000     -2.9318557E-32
  0.2335000     -7.1028467E-33
  0.2340000      1.8957366E-32
  0.2345000      4.8824866E-32
  0.2350000      8.2345865E-32
  0.2355000      1.1923405E-31
  0.2360000      1.5905659E-31
  0.2365000      2.0122237E-31
  0.2370000      2.4497347E-31
  0.2375000      2.8938028E-31
  0.2380000      3.3334088E-31
  0.2385000      3.7558495E-31
  0.2390000      4.1468300E-31
  0.2395000      4.4906094E-31
  0.2400000      4.7702045E-31
  0.2405000      4.9676546E-31
  0.2410000      5.0643470E-31
  0.2415000      5.0414085E-31
  0.2420000      4.8801631E-31
  0.2425000      4.5626512E-31
  0.2430000      4.0722204E-31
  0.2435000      3.3941739E-31
  0.2440000      2.5164833E-31
  0.2445000      1.4305510E-31
  0.2450000      1.3201206E-32
  0.2455000     -1.3784290E-31
  0.2460000     -3.0941604E-31
  0.2465000     -5.0018343E-31
  0.2470000     -7.0805869E-31
  0.2475000     -9.3013351E-31
  0.2480000     -1.1626192E-30
  0.2485000     -1.4008046E-30
  0.2490000     -1.6390343E-30
  0.2495000     -1.8707141E-30
  0.2500000     -2.0883451E-30
  0.2505000     -2.2835951E-30
  0.2510000     -2.4474059E-30
  0.2515000     -2.5701475E-30
  0.2520000     -2.6418113E-30
  0.2525000     -2.6522534E-30
  0.2530000     -2.5914800E-30
  0.2535000     -2.4499753E-30
  0.2540000     -2.2190665E-30
  0.2545000     -1.8913202E-30
  0.2550000     -1.4609640E-30
  0.2555000     -9.2431566E-31
  0.2560000     -2.8021681E-31
  0.2565000      4.6954901E-31
  0.2570000      1.3198685E-30
  0.2575000      2.2619545E-30
  0.2580000      3.2830647E-30
  0.2585000      4.3663010E-30
  0.2590000      5.4905032E-30
  0.2595000      6.6302553E-30
  0.2600000      7.7560223E-30
  0.2605000      8.8344167E-30
  0.2610000      9.8286276E-30
  0.2615000      1.0698996E-29
  0.2620000      1.1403751E-29
  0.2625000      1.1899917E-29
  0.2630000      1.2144361E-29
  0.2635000      1.2094994E-29
  0.2640000      1.1712107E-29
  0.2645000      1.0959805E-29
  0.2650000      9.8075364E-30
  0.2655000      8.2316653E-30
  0.2660000      6.2170693E-30
  0.2665000      3.7586983E-30
  0.2670000      8.6306281E-31
  0.2675000     -2.4504090E-30
  0.2680000     -6.1482007E-30
  0.2685000     -1.0181774E-29
  0.2690000     -1.4486946E-29
  0.2695000     -1.8983621E-29
  0.2700000     -2.3575936E-29
  0.2705000     -2.8152883E-29
  0.2710000     -3.2589425E-29
  0.2715000     -3.6748173E-29
  0.2720000     -4.0481612E-29
  0.2725000     -4.3634925E-29
  0.2730000     -4.6049331E-29
  0.2735000     -4.7566031E-29
  0.2740000     -4.8030580E-29
  0.2745000     -4.7297698E-29
  0.2750000     -4.5236432E-29
  0.2755000     -4.1735522E-29
  0.2760000     -3.6708854E-29
  0.2765000     -3.0100895E-29
  0.2770000     -2.1891852E-29
  0.2775000     -1.2102508E-29
  0.2780000     -7.9842821E-31
  0.2785000      1.1906543E-29
  0.2790000      2.5847755E-29
  0.2795000      4.0808322E-29
  0.2800000      5.6518966E-29
  0.2805000      7.2659270E-29
  0.2810000      8.8860452E-29
  0.2815000      1.0470981E-28
  0.2820000      1.1975674E-28
  0.2825000      1.3352047E-28
  0.2830000      1.4549946E-28
  0.2835000      1.5518231E-28
  0.2840000      1.6206010E-28
  0.2845000      1.6563998E-28
  0.2850000      1.6545981E-28
  0.2855000      1.6110340E-28
  0.2860000      1.5221637E-28
  0.2865000      1.3852180E-28
  0.2870000      1.1983577E-28
  0.2875000      9.6081882E-29
  0.2880000      6.7304691E-29
  0.2885000      3.3681334E-29
  0.2890000     -4.4690061E-30
  0.2895000     -4.6678331E-29
  0.2900000     -9.2326084E-29
  0.2905000     -1.4063895E-28
  0.2910000     -1.9069463E-28
  0.2915000     -2.4142964E-28
  0.2920000     -2.9165171E-28
  0.2925000     -3.4005652E-28
  0.2930000     -3.8524928E-28
  0.2935000     -4.2577073E-28
  0.2940000     -4.6012744E-28
  0.2945000     -4.8682612E-28
  0.2950000     -5.0441174E-28
  0.2955000     -5.1150812E-28
  0.2960000     -5.0686109E-28
  0.2965000     -4.8938289E-28
  0.2970000     -4.5819664E-28
  0.2975000     -4.1268028E-28
  0.2980000     -3.5250799E-28
  0.2985000     -2.7768884E-28
  0.2990000     -1.8860012E-28
  0.2995000     -8.6014848E-29
  0.3000000      2.8878230E-29
  0.3005000      1.5446351E-28
  0.3010000      2.8869714E-28
  0.3015000      4.2911674E-28
  0.3020000      5.7286310E-28
  0.3025000      7.1671403E-28
  0.3030000      8.5713146E-28
  0.3035000      9.9032107E-28
  0.3040000      1.1123047E-27
  0.3045000      1.2190042E-27
  0.3050000      1.3063370E-27
  0.3055000      1.3703194E-27
  0.3060000      1.4071793E-27
  0.3065000      1.4134719E-27
  0.3070000      1.3861998E-27
  0.3075000      1.3229316E-27
  0.3080000      1.2219167E-27
  0.3085000      1.0821939E-27
  0.3090000      9.0368860E-28
  0.3095000      6.8729646E-28
  0.3100000      4.3494846E-28
  0.3105000      1.4965566E-28
  0.3110000     -1.6447095E-28
  0.3115000     -5.0222663E-28
  0.3120000     -8.5734919E-28
  0.3125000     -1.2225854E-27
  0.3130000     -1.5897899E-27
  0.3135000     -1.9500549E-27
  0.3140000     -2.2938733E-27
  0.3145000     -2.6113287E-27
  0.3150000     -2.8923171E-27
  0.3155000     -3.1267879E-27
  0.3160000     -3.3050075E-27
  0.3165000     -3.4178381E-27
  0.3170000     -3.4570215E-27
  0.3175000     -3.4154696E-27
  0.3180000     -3.2875451E-27
  0.3185000     -3.0693314E-27
  0.3190000     -2.7588790E-27
  0.3195000     -2.3564242E-27
  0.3200000     -1.8645662E-27
  0.3205000     -1.2884009E-27
  0.3210000     -6.3560026E-28
  0.3215000      8.3571144E-29
  0.3220000      8.5630331E-28
  0.3225000      1.6673609E-27
  0.3230000      2.4992770E-27
  0.3235000      3.3326215E-27
  0.3240000      4.1463481E-27
  0.3245000      4.9182080E-27
  0.3250000      5.6252396E-27
  0.3255000      6.2443125E-27
  0.3260000      6.7527272E-27
  0.3265000      7.1288551E-27
  0.3270000      7.3528030E-27
  0.3275000      7.4070934E-27
  0.3280000      7.2773320E-27
  0.3285000      6.9528575E-27
  0.3290000      6.4273401E-27
  0.3295000      5.6993144E-27
  0.3300000      4.7726308E-27
  0.3305000      3.6567921E-27
  0.3310000      2.3671686E-27
  0.3315000      9.2506681E-28
  0.3320000     -6.4236182E-28
  0.3325000     -2.3023768E-27
  0.3330000     -4.0170920E-27
  0.3335000     -5.7440988E-27
  0.3340000     -7.4372651E-27
  0.3345000     -9.0477169E-27
  0.3350000     -1.0524978E-26
  0.3355000     -1.1818252E-26
  0.3360000     -1.2877829E-26
  0.3365000     -1.3656575E-26
  0.3370000     -1.4111486E-26
  0.3375000     -1.4205242E-26
  0.3380000     -1.3907744E-26
  0.3385000     -1.3197580E-26
  0.3390000     -1.2063344E-26
  0.3395000     -1.0504805E-26
  0.3400000     -8.5338364E-27
  0.3405000     -6.1750888E-27
  0.3410000     -3.4663442E-27
  0.3415000     -4.5852458E-28
  0.3420000      2.7846686E-27
  0.3425000      6.1875249E-27
  0.3430000      9.6634983E-27
  0.3435000      1.3116785E-26
  0.3440000      1.6444303E-26
  0.3445000      1.9538045E-26
  0.3450000      2.2287767E-26
  0.3455000      2.4583960E-26
  0.3460000      2.6321056E-26
  0.3465000      2.7400769E-26
  0.3470000      2.7735539E-26
  0.3475000      2.7251899E-26
  0.3480000      2.5893792E-26
  0.3485000      2.3625608E-26
  0.3490000      2.0434929E-26
  0.3495000      1.6334843E-26
  0.3500000      1.1365725E-26
  0.3505000      5.5964050E-27
  0.3510000     -8.7535557E-28
  0.3515000     -7.9231564E-27
  0.3520000     -1.5393067E-26
  0.3525000     -2.3105588E-26
  0.3530000     -3.0858470E-26
  0.3535000     -3.8430401E-26
  0.3540000     -4.5585505E-26
  0.3545000     -5.2078606E-26
  0.3550000     -5.7661190E-26
  0.3555000     -6.2087902E-26
  0.3560000     -6.5123543E-26
  0.3565000     -6.6550352E-26
  0.3570000     -6.6175372E-26
  0.3575000     -6.3837780E-26
  0.3580000     -5.9416011E-26
  0.3585000     -5.2834317E-26
  0.3590000     -4.4068725E-26
  0.3595000     -3.3152114E-26
  0.3600000     -2.0178144E-26
  0.3605000     -5.3039864E-27
  0.3610000      1.1248408E-26
  0.3615000      2.9192630E-26
  0.3620000      4.8179815E-26
  0.3625000      6.7802435E-26
  0.3630000      8.7599842E-26
  0.3635000      1.0706573E-25
  0.3640000      1.2565720E-25
  0.3645000      1.4280563E-25
  0.3650000      1.5792895E-25
  0.3655000      1.7044526E-25
  0.3660000      1.7978749E-25
  0.3665000      1.8541890E-25
  0.3670000      1.8684892E-25
  0.3675000      1.8364917E-25
  0.3680000      1.7546912E-25
  0.3685000      1.6205109E-25
  0.3690000      1.4324406E-25
  0.3695000      1.1901595E-25
  0.3700000      8.9464031E-26
  0.3705000      5.4822825E-26
  0.3710000      1.5469467E-26
  0.3715000     -2.8074019E-26
  0.3720000     -7.5141701E-26
  0.3725000     -1.2492823E-25
  0.3730000     -1.7649679E-25
  0.3735000     -2.2879094E-25
  0.3740000     -2.8064979E-25
  0.3745000     -3.3082684E-25
  0.3750000     -3.7801219E-25
  0.3755000     -4.2085749E-25
  0.3760000     -4.5800382E-25
  0.3765000     -4.8811143E-25
  0.3770000     -5.0989139E-25
  0.3775000     -5.2213806E-25
  0.3780000     -5.2376193E-25
  0.3785000     -5.1382253E-25
  0.3790000     -4.9155949E-25
  0.3795000     -4.5642279E-25
  0.3800000     -4.0809959E-25
  0.3805000     -3.4653844E-25
  0.3810000     -2.7196916E-25
  0.3815000     -1.8491827E-25
  0.3820000     -8.6219095E-26
  0.3825000      2.2983627E-26
  0.3830000      1.4123545E-25
  0.3835000      2.6678041E-25
  0.3840000      3.9757576E-25
  0.3845000      5.3131345E-25
  0.3850000      6.6544840E-25
  0.3855000      7.9723343E-25
  0.3860000      9.2376006E-25
  0.3865000      1.0420059E-24
  0.3870000      1.1488867E-24
  0.3875000      1.2413133E-24
  0.3880000      1.3162523E-24
  0.3885000      1.3707901E-24
  0.3890000      1.4021981E-24
  0.3895000      1.4079992E-24
  0.3900000      1.3860340E-24
  0.3905000      1.3345256E-24
  0.3910000      1.2521403E-24
  0.3915000      1.1380463E-24
  0.3920000      9.9196518E-25
  0.3925000      8.1421667E-25
  0.3930000      6.0575682E-25
  0.3935000      3.6820549E-25
  0.3940000      1.0386418E-25
  0.3945000     -1.8427753E-25
  0.3950000     -4.9254779E-25
  0.3955000     -8.1661160E-25
  0.3960000     -1.1515031E-24
  0.3965000     -1.4916719E-24
  0.3970000     -1.8310434E-24
  0.3975000     -2.1630931E-24
  0.3980000     -2.4809346E-24
  0.3985000     -2.7774209E-24
  0.3990000     -3.0452565E-24
  0.3995000     -3.2771229E-24
  0.4000000     -3.4658103E-24
  0.4005000     -3.6043611E-24
  0.4010000     -3.6862161E-24
  0.4015000     -3.7053661E-24
  0.4020000     -3.6565032E-24
  0.4025000     -3.5351725E-24
  0.4030000     -3.3379190E-24
  0.4035000     -3.0624267E-24
  0.4040000     -2.7076465E-24
  0.4045000     -2.2739146E-24
  0.4050000     -1.7630487E-24
  0.4055000     -1.1784293E-24
  0.4060000     -5.2505877E-25
  0.4065000      1.9041034E-25
  0.4070000      9.5966773E-25
  0.4075000      1.7727698E-24
  0.4080000      2.6181992E-24
  0.4085000      3.4829515E-24
  0.4090000      4.3526607E-24
  0.4095000      5.2117583E-24
  0.4100000      6.0436614E-24
  0.4105000      6.8310022E-24
  0.4110000      7.5558809E-24
  0.4115000      8.2001531E-24
  0.4120000      8.7457459E-24
  0.4125000      9.1749872E-24
  0.4130000      9.4709638E-24
  0.4135000      9.6178884E-24
  0.4140000      9.6014722E-24
  0.4145000      9.4093057E-24
  0.4150000      9.0312260E-24
  0.4155000      8.4596773E-24
  0.4160000      7.6900512E-24
  0.4165000      6.7209931E-24
  0.4170000      5.5546808E-24
  0.4175000      4.1970524E-24
  0.4180000      2.6579917E-24
  0.4185000      9.5143853E-25
  0.4190000     -9.0454499E-25
  0.4195000     -2.8878032E-24
  0.4200000     -4.9721710E-24
  0.4205000     -7.1276494E-24
  0.4210000     -9.3206685E-24
  0.4215000     -1.1514432E-23
  0.4220000     -1.3669338E-23
  0.4225000     -1.5743505E-23
  0.4230000     -1.7693360E-23
  0.4235000     -1.9474313E-23
  0.4240000     -2.1041495E-23
  0.4245000     -2.2350566E-23
  0.4250000     -2.3358560E-23
  0.4255000     -2.4024775E-23
  0.4260000     -2.4311683E-23
  0.4265000     -2.4185857E-23
  0.4270000     -2.3618885E-23
  0.4275000     -2.2588248E-23
  0.4280000     -2.1078171E-23
  0.4285000     -1.9080409E-23
  0.4290000     -1.6594926E-23
  0.4295000     -1.3630511E-23
  0.4300000     -1.0205239E-23
  0.4305000     -6.3468120E-24
  0.4310000     -2.0927640E-24
  0.4315000      2.5095499E-24
  0.4320000      7.4030920E-24
  0.4325000      1.2521493E-23
  0.4330000      1.7789605E-23
  0.4335000      2.3124230E-23
  0.4340000      2.8435078E-23
  0.4345000      3.3625881E-23
  0.4350000      3.8595727E-23
  0.4355000      4.3240577E-23
  0.4360000      4.7454890E-23
  0.4365000      5.1133459E-23
  0.4370000      5.4173306E-23
  0.4375000      5.6475694E-23
  0.4380000      5.7948226E-23
  0.4385000      5.8506898E-23
  0.4390000      5.8078231E-23
  0.4395000      5.6601262E-23
  0.4400000      5.4029519E-23
  0.4405000      5.0332844E-23
  0.4410000      4.5499026E-23
  0.4415000      3.9535266E-23
  0.4420000      3.2469326E-23
  0.4425000      2.4350426E-23
  0.4430000      1.5249827E-23
  0.4435000      5.2610053E-24
  0.4440000     -5.5005070E-24
  0.4445000     -1.6897735E-23
  0.4450000     -2.8773288E-23
  0.4455000     -4.0950792E-23
  0.4460000     -5.3236783E-23
  0.4465000     -6.5423037E-23
  0.4470000     -7.7289335E-23
  0.4475000     -8.8606536E-23
  0.4480000     -9.9140138E-23
  0.4485000     -1.0865408E-22
  0.4490000     -1.1691487E-22
  0.4495000     -1.2369583E-22
  0.4500000     -1.2878167E-22
  0.4505000     -1.3197305E-22
  0.4510000     -1.3309107E-22
  0.4515000     -1.3198186E-22
  0.4520000     -1.2852087E-22
  0.4525000     -1.2261697E-22
  0.4530000     -1.1421623E-22
  0.4535000     -1.0330521E-22
  0.4540000     -8.9913779E-23
  0.4545000     -7.4117300E-23
  0.4550000     -5.6038186E-23
  0.4555000     -3.5846676E-23
  0.4560000     -1.3760820E-23
  0.4565000      9.9544378E-24
  0.4570000      3.4988998E-23
  0.4575000      6.0990320E-23
  0.4580000      8.7567057E-23
  0.4585000      1.1429358E-22
  0.4590000      1.4071541E-22
  0.4595000      1.6635552E-22
  0.4600000      1.9072146E-22
  0.4605000      2.1331299E-22
  0.4610000      2.3363064E-22
  0.4615000      2.5118452E-22
  0.4620000      2.6550354E-22
  0.4625000      2.7614491E-22
  0.4630000      2.8270364E-22
  0.4635000      2.8482200E-22
  0.4640000      2.8219867E-22
  0.4645000      2.7459723E-22
  0.4650000      2.6185454E-22
  0.4655000      2.4388757E-22
  0.4660000      2.2069980E-22
  0.4665000      1.9238615E-22
  0.4670000      1.5913668E-22
  0.4675000      1.2123866E-22
  0.4680000      7.9077165E-23
  0.4685000      3.3134001E-23
  0.4690000     -1.6015386E-23
  0.4695000     -6.7706587E-23
  0.4700000     -1.2119303E-22
  0.4705000     -1.7565440E-22
  0.4710000     -2.3020698E-22
  0.4715000     -2.8391579E-22
  0.4720000     -3.3580804E-22
  0.4725000     -3.8488844E-22
  0.4730000     -4.3015538E-22
  0.4735000     -4.7061826E-22
  0.4740000     -5.0531592E-22
  0.4745000     -5.3333485E-22
  0.4750000     -5.5382817E-22
  0.4755000     -5.6603433E-22
  0.4760000     -5.6929499E-22
  0.4765000     -5.6307256E-22
  0.4770000     -5.4696586E-22
  0.4775000     -5.2072489E-22
  0.4780000     -4.8426290E-22
  0.4785000     -4.3766700E-22
  0.4790000     -3.8120553E-22
  0.4795000     -3.1533280E-22
  0.4800000     -2.4069103E-22
  0.4805000     -1.5810835E-22
  0.4810000     -6.8594283E-23
  0.4815000      2.6669194E-23
  0.4820000      1.2633958E-22
  0.4825000      2.2892925E-22
  0.4830000      3.3282473E-22