  0.0000000E+00  0.0000000E+00
  5.0000002E-04  0.0000000E+00
  1.0000000E-03  0.0000000E+00
  1.5000000E-03  0.0000000E+00
  2.0000001E-03  0.0000000E+00
  2.4999999E-03  0.0000000E+00
  3.0000000E-03  0.0000000E+00
  3.5000001E-03  0.0000000E+00
  4.0000002E-03  0.0000000E+00
  4.4999998E-03  0.0000000E+00
  4.9999999E-03  0.0000000E+00
  5.5000000E-03  0.0000000E+00
  6.0000001E-03  0.0000000E+00
  6.5000001E-03  0.0000000E+00
  7.0000002E-03  0.0000000E+00
  7.4999998E-03  0.0000000E+00
  8.0000004E-03  0.0000000E+00
  8.5000005E-03  0.0000000E+00
  8.9999996E-03  0.0000000E+00
  9.4999997E-03  0.0000000E+00
  9.9999998E-03  0.0000000E+00
  1.0500000E-02  0.0000000E+00
  1.1000000E-02  0.0000000E+00
  1.1500000E-02  0.0000000E+00
  1.2000000E-02  0.0000000E+00
  1.2500000E-02  0.0000000E+00
  1.3000000E-02  0.0000000E+00
  1.3500000E-02  0.0000000E+00
  1.4000000E-02  0.0000000E+00
  1.4500000E-02  0.0000000E+00
  1.5000000E-02  0.0000000E+00
  1.5500000E-02  0.0000000E+00
  1.6000001E-02  0.0000000E+00
  1.6500000E-02  0.0000000E+00
  1.7000001E-02  0.0000000E+00
  1.7500000E-02  0.0000000E+00
  1.7999999E-02  0.0000000E+00
  1.8500000E-02  0.0000000E+00
  1.8999999E-02  0.0000000E+00
  1.9500000E-02  0.0000000E+00
  2.0000000E-02  0.0000000E+00
  2.0500001E-02  0.0000000E+00
  2.1000000E-02  0.0000000E+00
  2.1500001E-02  0.0000000E+00
  2.2000000E-02  0.0000000E+00
  2.2500001E-02  0.0000000E+00
  2.3000000E-02  0.0000000E+00
  2.3499999E-02  0.0000000E+00
  2.4000000E-02  0.0000000E+00
  2.4499999E-02  0.0000000E+00
  2.5000000E-02  0.0000000E+00
  2.5500000E-02  0.0000000E+00
  2.6000001E-02  0.0000000E+00
  2.6500000E-02  0.0000000E+00
  2.7000001E-02  0.0000000E+00
  2.7500000E-02  0.0000000E+00
  2.8000001E-02  0.0000000E+00
  2.8500000E-02  0.0000000E+00
  2.8999999E-02  0.0000000E+00
  2.9500000E-02  0.0000000E+00
  2.9999999E-02  0.0000000E+00
  3.0500000E-02  0.0000000E+00
  3.0999999E-02  0.0000000E+00
  3.1500001E-02  0.0000000E+00
  3.2000002E-02  0.0000000E+00
  3.2499999E-02  0.0000000E+00
  3.3000000E-02  0.0000000E+00
  3.3500001E-02  0.0000000E+00
  3.4000002E-02  0.0000000E+00
  3.4499999E-02  0.0000000E+00
  3.5000000E-02  0.0000000E+00
  3.5500001E-02  0.0000000E+00
  3.5999998E-02  0.0000000E+00
  3.6499999E-02  0.0000000E+00
  3.7000000E-02  0.0000000E+00
  3.7500001E-02  0.0000000E+00
  3.7999999E-02  0.0000000E+00
  3.8500000E-02  0.0000000E+00
  3.9000001E-02  0.0000000E+00
  3.9500002E-02  0.0000000E+00
  3.9999999E-02  0.0000000E+00
  4.0500000E-02  0.0000000E+00
  4.1000001E-02  0.0000000E+00
  4.1499998E-02  0.0000000E+00
  4.1999999E-02  0.0000000E+00
  4.2500000E-02  0.0000000E+00
  4.3000001E-02  0.0000000E+00
  4.3499999E-02  0.0000000E+00
  4.4000000E-02  0.0000000E+00
  4.4500001E-02  0.0000000E+00
  4.5000002E-02  0.0000000E+00
  4.5499999E-02  0.0000000E+00
  4.6000000E-02  0.0000000E+00
  4.6500001E-02  0.0000000E+00
  4.6999998E-02  0.0000000E+00
  4.7499999E-02  0.0000000E+00
  4.8000000E-02  0.0000000E+00
  4.8500001E-02  0.0000000E+00
  4.8999999E-02  0.0000000E+00
  4.9500000E-02  0.0000000E+00
  5.0000001E-02  0.0000000E+00
  5.0500002E-02  0.0000000E+00
  5.0999999E-02  0.0000000E+00
  5.1500000E-02  0.0000000E+00
  5.2000001E-02  0.0000000E+00
  5.2499998E-02  0.0000000E+00
  5.2999999E-02  0.0000000E+00
  5.3500000E-02  0.0000000E+00
  5.4000001E-02  0.0000000E+00
  5.4499999E-02  0.0000000E+00
  5.5000000E-02  0.0000000E+00
  5.5500001E-02  0.0000000E+00
  5.6000002E-02  0.0000000E+00
  5.6499999E-02  0.0000000E+00
  5.7000000E-02  0.0000000E+00
  5.7500001E-02  0.0000000E+00
  5.7999998E-02  0.0000000E+00
  5.8499999E-02  0.0000000E+00
  5.9000000E-02  0.0000000E+00
  5.9500001E-02  0.0000000E+00
  5.9999999E-02  0.0000000E+00
  6.0500000E-02  0.0000000E+00
  6.1000001E-02  0.0000000E+00
  6.1500002E-02  0.0000000E+00
  6.1999999E-02  0.0000000E+00
  6.2500000E-02  0.0000000E+00
  6.3000001E-02  0.0000000E+00
  6.3500002E-02  0.0000000E+00
  6.4000003E-02  0.0000000E+00
  6.4499997E-02  0.0000000E+00
  6.4999998E-02  0.0000000E+00
  6.5499999E-02  0.0000000E+00
  6.6000000E-02  0.0000000E+00
  6.6500001E-02  0.0000000E+00
  6.7000002E-02  0.0000000E+00
  6.7500003E-02  0.0000000E+00
  6.8000004E-02  0.0000000E+00
  6.8499997E-02  0.0000000E+00
  6.8999998E-02  0.0000000E+00
  6.9499999E-02  0.0000000E+00
  7.0000000E-02  0.0000000E+00
  7.0500001E-02  0.0000000E+00
  7.1000002E-02  0.0000000E+00
  7.1500003E-02  0.0000000E+00
  7.1999997E-02  0.0000000E+00
  7.2499998E-02  0.0000000E+00
  7.2999999E-02  0.0000000E+00
  7.3500000E-02  0.0000000E+00
  7.4000001E-02  0.0000000E+00
  7.4500002E-02  0.0000000E+00
  7.5000003E-02  0.0000000E+00
  7.5499997E-02  0.0000000E+00
  7.5999998E-02  0.0000000E+00
  7.6499999E-02  0.0000000E+00
  7.7000000E-02  0.0000000E+00
  7.7500001E-02  0.0000000E+00
  7.8000002E-02  0.0000000E+00
  7.8500003E-02  0.0000000E+00
  7.9000004E-02  0.0000000E+00
  7.9499997E-02  0.0000000E+00
  7.9999998E-02  0.0000000E+00
  8.0499999E-02  0.0000000E+00
  8.1000000E-02  0.0000000E+00
  8.1500001E-02  0.0000000E+00
  8.2000002E-02  0.0000000E+00
  8.2500003E-02  0.0000000E+00
  8.2999997E-02  0.0000000E+00
  8.3499998E-02  0.0000000E+00
  8.3999999E-02  0.0000000E+00
  8.4500000E-02  0.0000000E+00
  8.5000001E-02  0.0000000E+00
  8.5500002E-02  0.0000000E+00
  8.6000003E-02  0.0000000E+00
  8.6499996E-02  0.0000000E+00
  8.6999997E-02  0.0000000E+00
  8.7499999E-02  0.0000000E+00
  8.8000000E-02  0.0000000E+00
  8.8500001E-02  0.0000000E+00
  8.9000002E-02  0.0000000E+00
  8.9500003E-02  0.0000000E+00
  9.0000004E-02  0.0000000E+00
  9.0499997E-02  0.0000000E+00
  9.0999998E-02  0.0000000E+00
  9.1499999E-02  0.0000000E+00
  9.2000000E-02  0.0000000E+00
  9.2500001E-02  0.0000000E+00
  9.3000002E-02  0.0000000E+00
  9.3500003E-02  0.0000000E+00
  9.3999997E-02  0.0000000E+00
  9.4499998E-02  0.0000000E+00
  9.4999999E-02  0.0000000E+00
  9.5500000E-02  0.0000000E+00
  9.6000001E-02  0.0000000E+00
  9.6500002E-02  0.0000000E+00
  9.7000003E-02  0.0000000E+00
  9.7499996E-02  0.0000000E+00
  9.7999997E-02  0.0000000E+00
  9.8499998E-02  0.0000000E+00
  9.8999999E-02  0.0000000E+00
  9.9500000E-02  0.0000000E+00
  0.1000000      0.0000000E+00
  0.1005000      0.0000000E+00
  0.1010000      0.0000000E+00
  0.1015000      0.0000000E+00
  0.1020000      0.0000000E+00
  0.1025000      0.0000000E+00
  0.1030000      0.0000000E+00
  0.1035000      0.0000000E+00
  0.1040000      0.0000000E+00
  0.1045000      0.0000000E+00
  0.1050000      0.0000000E+00
  0.1055000      0.0000000E+00
  0.1060000      0.0000000E+00
  0.1065000      0.0000000E+00
  0.1070000      0.0000000E+00
  0.1075000      0.0000000E+00
  0.1080000      0.0000000E+00
  0.1085000      0.0000000E+00
  0.1090000      0.0000000E+00
  0.1095000      0.0000000E+00
  0.1100000      0.0000000E+00
  0.1105000      0.0000000E+00
  0.1110000      0.0000000E+00
  0.1115000      0.0000000E+00
  0.1120000      0.0000000E+00
  0.1125000      0.0000000E+00
  0.1130000      0.0000000E+00
  0.1135000      0.0000000E+00
  0.1140000      0.0000000E+00
  0.1145000      0.0000000E+00
  0.1150000      0.0000000E+00
  0.1155000      0.0000000E+00
  0.1160000      0.0000000E+00
  0.1165000      0.0000000E+00
  0.1170000      0.0000000E+00
  0.1175000      0.0000000E+00
  0.1180000      0.0000000E+00
  0.1185000      0.0000000E+00
  0.1190000      0.0000000E+00
  0.1195000      0.0000000E+00
  0.1200000      0.0000000E+00
  0.1205000      0.0000000E+00
  0.1210000      0.0000000E+00
  0.1215000      0.0000000E+00
  0.1220000      0.0000000E+00
  0.1225000      0.0000000E+00
  0.1230000      0.0000000E+00
  0.1235000      0.0000000E+00
  0.1240000      0.0000000E+00
  0.1245000      0.0000000E+00
  0.1250000      1.2105251E-38
  0.1255000      0.0000000E+00
  0.1260000      0.0000000E+00
  0.1265000      0.0000000E+00
  0.1270000      0.0000000E+00
  0.1275000      0.0000000E+00
  0.1280000     -1.7006158E-38
  0.1285000     -2.1639592E-38
  0.1290000     -2.4849682E-38
  0.1295000     -2.7706325E-38
  0.1300000     -3.0293021E-38
  0.1305000     -3.4012507E-38
  0.1310000     -3.8855092E-38
  0.1315000     -4.4974349E-38
  0.1320000     -5.2212151E-38
  0.1325000     -5.9864294E-38
  0.1330000     -6.6635458E-38
  0.1335000     -7.4057990E-38
  0.1340000     -7.8960164E-38
  0.1345000     -8.2600558E-38
  0.1350000     -8.3605177E-38
  0.1355000     -7.9703463E-38
  0.1360000     -6.9799069E-38
  0.1365000     -5.3287451E-38
  0.1370000     -2.6596998E-38
  0.1375000      0.0000000E+00
  0.1380000      5.5030274E-38
  0.1385000      1.0857772E-37
  0.1390000      1.6875834E-37
  0.1395000      2.3196855E-37
  0.1400000      2.9817629E-37
  0.1405000      3.5192598E-37
  0.1410000      3.9150660E-37
  0.1415000      4.0957968E-37
  0.1420000      4.0167837E-37
  0.1425000      3.6057351E-37
  0.1430000      2.8481750E-37
  0.1435000      1.7075598E-37
  0.1440000      1.9355057E-38
  0.1445000     -1.6579900E-37
  0.1450000     -3.7812270E-37
  0.1455000     -6.0584738E-37
  0.1460000     -8.3822455E-37
  0.1465000     -1.0581099E-36
  0.1470000     -1.2473785E-36
  0.1475000     -1.3867859E-36
  0.1480000     -1.4571557E-36
  0.1485000     -1.4409553E-36
  0.1490000     -1.3237193E-36
  0.1495000     -1.0957567E-36
  0.1500000     -7.5378808E-37
  0.1505000     -3.0239330E-37
  0.1510000      2.4510827E-37
  0.1515000      8.6590156E-37
  0.1520000      1.5277513E-36
  0.1525000      2.1896752E-36
  0.1530000      2.8034412E-36
  0.1535000      3.3158113E-36
  0.1540000      3.6715376E-36
  0.1545000      3.8169720E-36
  0.1550000      3.7093623E-36
  0.1555000      3.3001362E-36
  0.1560000      2.5710795E-36
  0.1565000      1.5173393E-36
  0.1570000      1.5609612E-37
  0.1575000     -1.4708828E-36
  0.1580000     -3.2959340E-36
  0.1585000     -5.2257299E-36
  0.1590000     -7.1431220E-36
  0.1595000     -8.9111677E-36
  0.1600000     -1.0378441E-35
  0.1605000     -1.1386848E-35
  0.1610000     -1.1780509E-35
  0.1615000     -1.1416231E-35
  0.1620000     -1.0174673E-35
  0.1625000     -7.9718226E-36
  0.1630000     -4.7700706E-36
  0.1635000     -5.8809223E-37
  0.1640000      4.4910044E-36
  0.1645000      1.0314244E-35
  0.1650000      1.6656667E-35
  0.1655000      2.3223192E-35
  0.1660000      2.9654956E-35
  0.1665000      3.5540432E-35
  0.1670000      4.0431432E-35
  0.1675000      4.3863813E-35
  0.1680000      4.5382413E-35
  0.1685000      4.4569319E-35
  0.1690000      4.1074284E-35
  0.1695000      3.4645839E-35
  0.1700000      2.5161172E-35
  0.1705000      1.2652819E-35
  0.1710000     -2.6700934E-36
  0.1715000     -2.0408192E-35
  0.1720000     -3.9967844E-35
  0.1725000     -6.0568517E-35
  0.1730000     -8.1262711E-35
  0.1735000     -1.0096900E-34
  0.1740000     -1.1851794E-34
  0.1745000     -1.3270950E-34
  0.1750000     -1.4237991E-34
  0.1755000     -1.4647451E-34
  0.1760000     -1.4412262E-34
  0.1765000     -1.3470935E-34
  0.1770000     -1.1793896E-34
  0.1775000     -9.3884547E-35
  0.1780000     -6.3018631E-35
  0.1785000     -2.6220380E-35
  0.1790000      1.5243576E-35
  0.1795000      5.9766420E-35
  0.1800000      1.0547559E-34
  0.1805000      1.5033183E-34
  0.1810000      1.9224767E-34
  0.1815000      2.2921805E-34
  0.1820000      2.5945422E-34
  0.1825000      2.8151060E-34
  0.1830000      2.9439395E-34
  0.1835000      2.9764477E-34
  0.1840000      2.9138204E-34
  0.1845000      2.7630479E-34
  0.1850000      2.5364666E-34
  0.1855000      2.2508444E-34
  0.1860000      1.9260431E-34
  0.1865000      1.5833430E-34
  0.1870000      1.2435505E-34
  0.1875000      9.2503353E-35
  0.1880000      6.4185125E-35
  0.1885000      4.0214328E-35
  0.1890000      2.0693503E-35
  0.1895000      4.9480589E-36
  0.1900000     -8.4770986E-36
  0.1905000     -2.1756588E-35
  0.1910000     -3.7660931E-35
  0.1915000     -5.9380901E-35
  0.1920000     -9.0312915E-35
  0.1925000     -1.3382543E-34
  0.1930000     -1.9302428E-34
  0.1935000     -2.7053943E-34
  0.1940000     -3.6834788E-34
  0.1945000     -4.8764644E-34
  0.1950000     -6.2877606E-34
  0.1955000     -7.9119485E-34
  0.1960000     -9.7348510E-34
  0.1965000     -1.1733721E-33
  0.1970000     -1.3877252E-33
  0.1975000     -1.6125128E-33
  0.1980000     -1.8426792E-33
  0.1985000     -2.0719243E-33
  0.1990000     -2.2923741E-33
  0.1995000     -2.4941553E-33
  0.2000000     -2.6648980E-33
  0.2005000     -2.7892323E-33
  0.2010000     -2.8483450E-33
  0.2015000     -2.8197073E-33
  0.2020000     -2.6770841E-33
  0.2025000     -2.3909441E-33
  0.2030000     -1.9293861E-33
  0.2035000     -1.2596773E-33
  0.2040000     -3.5045188E-34
  0.2045000      8.2541606E-34
  0.2050000      2.2873280E-33
  0.2055000      4.0429986E-33
  0.2060000      6.0842247E-33
  0.2065000      8.3826743E-33
  0.2070000      1.0886056E-32
  0.2075000      1.3515066E-32
  0.2080000      1.6161565E-32
  0.2085000      1.8688393E-32
  0.2090000      2.0931234E-32
  0.2095000      2.2702825E-32
  0.2100000      2.3799693E-32
  0.2105000      2.4011492E-32
  0.2110000      2.3132752E-32
  0.2115000      2.0976708E-32
  0.2120000      1.7390640E-32
  0.2125000      1.2271965E-32
  0.2130000      5.5841540E-33
  0.2135000     -2.6286408E-33
  0.2140000     -1.2229366E-32
  0.2145000     -2.2979438E-32
  0.2150000     -3.4534802E-32
  0.2155000     -4.6447620E-32
  0.2160000     -5.8174340E-32
  0.2165000     -6.9090515E-32
  0.2170000     -7.8512437E-32
  0.2175000     -8.5725253E-32
  0.2180000     -9.0016754E-32
  0.2185000     -9.0715656E-32
  0.2190000     -8.7232730E-32
  0.2195000     -7.9102994E-32
  0.2200000     -6.6026660E-32
  0.2205000     -4.7906687E-32
  0.2210000     -2.4880593E-32
  0.2215000      2.6556934E-33
  0.2220000      3.4033809E-32
  0.2225000      6.8310422E-32
  0.2230000      1.0427730E-31
  0.2235000      1.4048462E-31
  0.2240000      1.7527754E-31
  0.2245000      2.0684544E-31
  0.2250000      2.3328278E-31
  0.2255000      2.5265998E-31
  0.2260000      2.6310187E-31
  0.2265000      2.6287152E-31
  0.2270000      2.5045659E-31
  0.2275000      2.2465491E-31
  0.2280000      1.8465683E-31
  0.2285000      1.3012071E-31
  0.2290000      6.1239106E-32
  0.2295000     -2.1207265E-32
  0.2300000     -1.1581017E-31
  0.2305000     -2.2051122E-31
  0.2310000     -3.3259813E-31
  0.2315000     -4.4872118E-31
  0.2320000     -5.6493097E-31
  0.2325000     -6.7673920E-31
  0.2330000     -7.7920154E-31
  0.2335000     -8.6702441E-31
  0.2340000     -9.3469424E-31
  0.2345000     -9.7662807E-31
  0.2350000     -9.8734538E-31
  0.2355000     -9.6165792E-31
  0.2360000     -8.9487404E-31
  0.2365000     -7.8301517E-31
  0.2370000     -6.2303853E-31
  0.2375000     -4.1306114E-31
  0.2380000     -1.5257759E-31
  0.2385000      1.5733417E-31
  0.2390000      5.1382960E-31
  0.2395000      9.1214158E-31
  0.2400000      1.3454642E-30
  0.2405000      1.8048824E-30
  0.2410000      2.2793556E-30
  0.2415000      2.7557648E-30
  0.2420000      3.2190264E-30
  0.2425000      3.6522783E-30
  0.2430000      4.0371441E-30
  0.2435000      4.3540713E-30
  0.2440000      4.5827484E-30
  0.2445000      4.7025936E-30
  0.2450000      4.6933115E-30
  0.2455000      4.5355097E-30
  0.2460000      4.2113697E-30
  0.2465000      3.7053568E-30
  0.2470000      3.0049553E-30
  0.2475000      2.1014224E-30
  0.2480000      9.9053671E-31
  0.2485000     -3.2667475E-31
  0.2490000     -1.8432434E-30
  0.2495000     -3.5456276E-30
  0.2500000     -5.4131598E-30
  0.2505000     -7.4176011E-30
  0.2510000     -9.5228185E-30
  0.2515000     -1.1684623E-29
  0.2520000     -1.3850786E-29
  0.2525000     -1.5961272E-29
  0.2530000     -1.7948701E-29
  0.2535000     -1.9739083E-29
  0.2540000     -2.1252840E-29
  0.2545000     -2.2406140E-29
  0.2550000     -2.3112556E-29
  0.2555000     -2.3285047E-29
  0.2560000     -2.2838293E-29
  0.2565000     -2.1691316E-29
  0.2570000     -1.9770411E-29
  0.2575000     -1.7012321E-29
  0.2580000     -1.3367583E-29
  0.2585000     -8.8040073E-30
  0.2590000     -3.3101673E-30
  0.2595000      3.1011928E-30
  0.2600000      1.0389961E-29
  0.2605000      1.8485772E-29
  0.2610000      2.7285649E-29
  0.2615000      3.6652204E-29
  0.2620000      4.6412628E-29
  0.2625000      5.6358572E-29
  0.2630000      6.6247049E-29
  0.2635000      7.5802436E-29
  0.2640000      8.4719732E-29
  0.2645000      9.2669038E-29
  0.2650000      9.9301363E-29
  0.2655000      1.0425570E-28
  0.2660000      1.0716736E-28
  0.2665000      1.0767752E-28
  0.2670000      1.0544364E-28
  0.2675000      1.0015103E-28
  0.2680000      9.1524747E-29
  0.2685000      7.9342247E-29
  0.2690000      6.3445982E-29
  0.2695000      4.3755783E-29
  0.2700000      2.0280942E-29
  0.2705000     -6.8688946E-30
  0.2710000     -3.7473854E-29
  0.2715000     -7.1195840E-29
  0.2720000     -1.0757264E-28
  0.2725000     -1.4601449E-28
  0.2730000     -1.8580372E-28
  0.2735000     -2.2609753E-28
  0.2740000     -2.6593467E-28
  0.2745000     -3.0424587E-28
  0.2750000     -3.3986864E-28
  0.2755000     -3.7156620E-28
  0.2760000     -3.9805098E-28
  0.2765000     -4.1801207E-28
  0.2770000     -4.3014711E-28
  0.2775000     -4.3319735E-28
  0.2780000     -4.2598638E-28
  0.2785000     -4.0746057E-28
  0.2790000     -3.7673152E-28
  0.2795000     -3.3311891E-28
  0.2800000     -2.7619224E-28
  0.2805000     -2.0581101E-28
  0.2810000     -1.2216098E-28
  0.2815000     -2.5785611E-29
  0.2820000      8.2388882E-29
  0.2825000      2.0103650E-28
  0.2830000      3.2842397E-28
  0.2835000      4.6241328E-28
  0.2840000      6.0047597E-28
  0.2845000      7.3971979E-28
  0.2850000      8.7692800E-28
  0.2855000      1.0086109E-27
  0.2860000      1.1310697E-27
  0.2865000      1.2404726E-27
  0.2870000      1.3329399E-27
  0.2875000      1.4046380E-27
  0.2880000      1.4518802E-27
  0.2885000      1.4712308E-27
  0.2890000      1.4596107E-27
  0.2895000      1.4144006E-27
  0.2900000      1.3335405E-27
  0.2905000      1.2156199E-27
  0.2910000      1.0599577E-27
  0.2915000      8.6666761E-28
  0.2920000      6.3670844E-28
  0.2925000      3.7191467E-28
  0.2930000      7.5007719E-29
  0.2935000     -2.5041372E-28
  0.2940000     -5.9990479E-28
  0.2945000     -9.6822584E-28
  0.2950000     -1.3494154E-27
  0.2955000     -1.7368783E-27
  0.2960000     -2.1234924E-27
  0.2965000     -2.5017275E-27
  0.2970000     -2.8637731E-27
  0.2975000     -3.2016744E-27
  0.2980000     -3.5074686E-27
  0.2985000     -3.7733224E-27
  0.2990000     -3.9916655E-27
  0.2995000     -4.1553148E-27
  0.3000000     -4.2575909E-27
  0.3005000     -4.2924214E-27
  0.3010000     -4.2544351E-27
  0.3015000     -4.1390365E-27
  0.3020000     -3.9424745E-27
  0.3025000     -3.6618958E-27
  0.3030000     -3.2953913E-27
  0.3035000     -2.8420351E-27
  0.3040000     -2.3019177E-27
  0.3045000     -1.6761836E-27
  0.3050000     -9.6707077E-28
  0.3055000     -1.7795386E-28
  0.3060000      6.8659923E-28
  0.3065000      1.6207598E-27
  0.3070000      2.6173600E-27
  0.3075000      3.6678007E-27
  0.3080000      4.7619481E-27
  0.3085000      5.8880231E-27
  0.3090000      7.0324885E-27
  0.3095000      8.1799414E-27
  0.3100000      9.3130168E-27
  0.3105000      1.0412312E-26
  0.3110000      1.1456350E-26
  0.3115000      1.2421585E-26
  0.3120000      1.3282469E-26
  0.3125000      1.4011587E-26
  0.3130000      1.4579892E-26
  0.3135000      1.4957015E-26
  0.3140000      1.5111700E-26
  0.3145000      1.5012347E-26
  0.3150000      1.4627680E-26
  0.3155000      1.3927527E-26
  0.3160000      1.2883734E-26
  0.3165000      1.1471172E-26
  0.3170000      9.6688547E-27
  0.3175000      7.4611289E-27
  0.3180000      4.8389244E-27
  0.3185000      1.8010207E-27
  0.3190000     -1.6446885E-27
  0.3195000     -5.4799948E-27
  0.3200000     -9.6752557E-27
  0.3205000     -1.4188440E-26
  0.3210000     -1.8964353E-26
  0.3215000     -2.3934135E-26
  0.3220000     -2.9015037E-26
  0.3225000     -3.4110564E-26
  0.3230000     -3.9111027E-26
  0.3235000     -4.3894504E-26
  0.3240000     -4.8328306E-26
  0.3245000     -5.2270903E-26
  0.3250000     -5.5574388E-26
  0.3255000     -5.8087397E-26
  0.3260000     -5.9658512E-26
  0.3265000     -6.0140161E-26
  0.3270000     -5.9392801E-26
  0.3275000     -5.7289464E-26
  0.3280000     -5.3720553E-26
  0.3285000     -4.8598633E-26
  0.3290000     -4.1863329E-26
  0.3295000     -3.3485962E-26
  0.3300000     -2.3473927E-26
  0.3305000     -1.1874569E-26
  0.3310000      1.2215668E-27
  0.3315000      1.5678272E-26
  0.3320000      3.1312200E-26
  0.3325000      4.7892464E-26
  0.3330000      6.5141453E-26
  0.3335000      8.2737007E-26
  0.3340000      1.0031600E-25
  0.3345000      1.1747931E-25
  0.3350000      1.3379833E-25
  0.3355000      1.4882280E-25
  0.3360000      1.6209004E-25
  0.3365000      1.7313531E-25
  0.3370000      1.8150324E-25
  0.3375000      1.8675995E-25
  0.3380000      1.8850586E-25
  0.3385000      1.8638850E-25
  0.3390000      1.8011540E-25
  0.3395000      1.6946628E-25
  0.3400000      1.5430456E-25
  0.3405000      1.3458744E-25
  0.3410000      1.1037446E-25
  0.3415000      8.1833984E-26
  0.3420000      4.9247415E-26
  0.3425000      1.3010680E-26
  0.3430000     -2.6367004E-26
  0.3435000     -6.8267480E-26
  0.3440000     -1.1197108E-25
  0.3445000     -1.5666718E-25
  0.3450000     -2.0146775E-25
  0.3455000     -2.4542380E-25
  0.3460000     -2.8754434E-25
  0.3465000     -3.2681768E-25
  0.3470000     -3.6223423E-25
  0.3475000     -3.9281087E-25
  0.3480000     -4.1761557E-25
  0.3485000     -4.3579235E-25
  0.3490000     -4.4658525E-25
  0.3495000     -4.4936096E-25
  0.3500000     -4.4362959E-25
  0.3505000     -4.2906219E-25
  0.3510000     -4.0550537E-25
  0.3515000     -3.7299158E-25
  0.3520000     -3.3174537E-25
  0.3525000     -2.8218454E-25
  0.3530000     -2.2491672E-25
  0.3535000     -1.6073043E-25
  0.3540000     -9.0581767E-26
  0.3545000     -1.5575877E-26
  0.3550000      6.3055606E-26
  0.3555000      1.4398106E-25
  0.3560000      2.2579852E-25
  0.3565000      3.0706756E-25
  0.3570000      3.8634268E-25
  0.3575000      4.6220702E-25
  0.3580000      5.3330552E-25
  0.3585000      5.9837678E-25
  0.3590000      6.5628129E-25
  0.3595000      7.0602726E-25
  0.3600000      7.4679061E-25
  0.3605000      7.7793065E-25
  0.3610000      7.9899900E-25
  0.3615000      8.0974269E-25
  0.3620000      8.1010005E-25
  0.3625000      8.0019048E-25
  0.3630000      7.8029787E-25
  0.3635000      7.5084742E-25
  0.3640000      7.1237818E-25
  0.3645000      6.6551106E-25
  0.3650000      6.1091385E-25
  0.3655000      5.4926472E-25
  0.3660000      4.8121570E-25
  0.3665000      4.0735779E-25
  0.3670000      3.2818896E-25
  0.3675000      2.4408771E-25
  0.3680000      1.5529231E-25
  0.3685000      6.1888665E-26
  0.3690000     -3.6192858E-26
  0.3695000     -1.3917050E-25
  0.3700000     -2.4739265E-25
  0.3705000     -3.6130902E-25
  0.3710000     -4.8142998E-25
  0.3715000     -6.0827570E-25
  0.3720000     -7.4231471E-25
  0.3725000     -8.8389567E-25
  0.3730000     -1.0331712E-24
  0.3735000     -1.1900198E-24
  0.3740000     -1.3539636E-24
  0.3745000     -1.5240910E-24
  0.3750000     -1.6989824E-24
  0.3755000     -1.8766441E-24
  0.3760000     -2.0544575E-24
  0.3765000     -2.2291391E-24
  0.3770000     -2.3967231E-24
  0.3775000     -2.5525648E-24
  0.3780000     -2.6913668E-24
  0.3785000     -2.8072349E-24
  0.3790000     -2.8937583E-24
  0.3795000     -2.9441232E-24
  0.3800000     -2.9512484E-24
  0.3805000     -2.9079539E-24
  0.3810000     -2.8071519E-24
  0.3815000     -2.6420618E-24
  0.3820000     -2.4064415E-24
  0.3825000     -2.0948337E-24
  0.3830000     -1.7028200E-24
  0.3835000     -1.2272763E-24
  0.3840000     -6.6662217E-25
  0.3845000     -2.1058303E-26
  0.3850000      7.0721824E-25
  0.3855000      1.5138253E-24
  0.3860000      2.3920448E-24
  0.3865000      3.3327129E-24
  0.3870000      4.3241635E-24
  0.3875000      5.3522260E-24
  0.3880000      6.4002798E-24
  0.3885000      7.4493792E-24
  0.3890000      8.4784411E-24
  0.3895000      9.4645007E-24
  0.3900000      1.0383034E-23
  0.3905000      1.1208340E-23
  0.3910000      1.1913989E-23
  0.3915000      1.2473315E-23
  0.3920000      1.2859962E-23
  0.3925000      1.3048468E-23
  0.3930000      1.3014858E-23
  0.3935000      1.2737282E-23
  0.3940000      1.2196626E-23
  0.3945000      1.1377128E-23
  0.3950000      1.0266972E-23
  0.3955000      8.8588322E-24
  0.3960000      7.1503788E-24
  0.3965000      5.1447173E-24
  0.3970000      2.8507564E-24
  0.3975000      2.8347773E-25
  0.3980000     -2.5358650E-24
  0.3985000     -5.5796708E-24
  0.3990000     -8.8140155E-24
  0.3995000     -1.2198783E-23
  0.4000000     -1.5687916E-23
  0.4005000     -1.9229785E-23
  0.4010000     -2.2767659E-23
  0.4015000     -2.6240294E-23
  0.4020000     -2.9582625E-23
  0.4025000     -3.2726551E-23
  0.4030000     -3.5601820E-23
  0.4035000     -3.8136985E-23
  0.4040000     -4.0260425E-23
  0.4045000     -4.1901458E-23
  0.4050000     -4.2991455E-23
  0.4055000     -4.3465037E-23
  0.4060000     -4.3261274E-23
  0.4065000     -4.2324880E-23
  0.4070000     -4.0607467E-23
  0.4075000     -3.8068730E-23
  0.4080000     -3.4677641E-23
  0.4085000     -3.0413617E-23
  0.4090000     -2.5267590E-23
  0.4095000     -1.9243118E-23
  0.4100000     -1.2357310E-23
  0.4105000     -4.6417380E-24
  0.4110000      3.8567560E-24
  0.4115000      1.3075405E-23
  0.4120000      2.2934984E-23
  0.4125000      3.3339398E-23
  0.4130000      4.4175501E-23
  0.4135000      5.5313084E-23
  0.4140000      6.6605079E-23
  0.4145000      7.7888055E-23
  0.4150000      8.8982942E-23
  0.4155000      9.9696115E-23
  0.4160000      1.0982072E-22
  0.4165000      1.1913849E-22
  0.4170000      1.2742181E-22
  0.4175000      1.3443627E-22
  0.4180000      1.3994360E-22
  0.4185000      1.4370501E-22
  0.4190000      1.4548504E-22
  0.4195000      1.4505571E-22
  0.4200000      1.4220116E-22
  0.4205000      1.3672266E-22
  0.4210000      1.2844383E-22
  0.4215000      1.1721630E-22
  0.4220000      1.0292547E-22
  0.4225000      8.5496316E-23
  0.4230000      6.4899416E-23
  0.4235000      4.1156565E-23
  0.4240000      1.4346430E-23
  0.4245000     -1.5390411E-23
  0.4250000     -4.7846863E-23
  0.4255000     -8.2745469E-23
  0.4260000     -1.1973545E-22
  0.4265000     -1.5839085E-22
  0.4270000     -1.9820990E-22
  0.4275000     -2.3861581E-22
  0.4280000     -2.7895911E-22
  0.4285000     -3.1852189E-22
  0.4290000     -3.5652348E-22
  0.4295000     -3.9212852E-22
  0.4300000     -4.2445675E-22
  0.4305000     -4.5259502E-22
  0.4310000     -4.7561108E-22
  0.4315000     -4.9256944E-22
  0.4320000     -5.0254913E-22
  0.4325000     -5.0466292E-22
  0.4330000     -4.9807819E-22
  0.4335000     -4.8203874E-22
  0.4340000     -4.5588769E-22
  0.4345000     -4.1909027E-22
  0.4350000     -3.7125740E-22
  0.4355000     -3.1216778E-22
  0.4360000     -2.4178973E-22
  0.4365000     -1.6030097E-22
  0.4370000     -6.8106445E-23
  0.4375000      3.4146923E-23
  0.4380000      1.4555854E-22
  0.4385000      2.6496667E-22
  0.4390000      3.9094538E-22
  0.4395000      5.2180662E-22
  0.4400000      6.5560748E-22
  0.4405000      7.9016372E-22
  0.4410000      9.2306904E-22
  0.4415000      1.0517211E-21
  0.4420000      1.1733531E-21
  0.4425000      1.2850728E-21
  0.4430000      1.3839068E-21
  0.4435000      1.4668508E-21
  0.4440000      1.5309248E-21
  0.4445000      1.5732337E-21
  0.4450000      1.5910304E-21
  0.4455000      1.5817832E-21
  0.4460000      1.5432431E-21
  0.4465000      1.4735128E-21
  0.4470000      1.3711151E-21
  0.4475000      1.2350571E-21
  0.4480000      1.0648924E-21
  0.4485000      8.6077675E-22
  0.4490000      6.2351687E-22
  0.4495000      3.5461095E-22
  0.4500000      5.6278498E-23
  0.4505000     -2.6852128E-22
  0.4510000     -6.1608355E-22
  0.4515000     -9.8196709E-22
  0.4520000     -1.3610170E-21
  0.4525000     -1.7474053E-21
  0.4530000     -2.1346856E-21
  0.4535000     -2.5158660E-21
  0.4540000     -2.8834979E-21
  0.4545000     -3.2297796E-21
  0.4550000     -3.5466770E-21
  0.4555000     -3.8260561E-21
  0.4560000     -4.0598295E-21
  0.4565000     -4.2401129E-21
  0.4570000     -4.3593884E-21
  0.4575000     -4.4106753E-21
  0.4580000     -4.3877032E-21
  0.4585000     -4.2850827E-21
  0.4590000     -4.0984760E-21
  0.4595000     -3.8247551E-21
  0.4600000     -3.4621548E-21
  0.4605000     -3.0104049E-21
  0.4610000     -2.4708477E-21
  0.4615000     -1.8465335E-21
  0.4620000     -1.1422886E-21
  0.4625000     -3.6475590E-22
  0.4630000      4.7759548E-22
  0.4635000      1.3744954E-21
  0.4640000      2.3139323E-21
  0.4645000      3.2822515E-21
  0.4650000      4.2642885E-21
  0.4655000      5.2435452E-21
  0.4660000      6.2023949E-21
  0.4665000      7.1223320E-21
  0.4670000      7.9842494E-21
  0.4675000      8.7687438E-21
  0.4680000      9.4564580E-21
  0.4685000      1.0028433E-20
  0.4690000      1.0466483E-20
  0.4695000      1.0753578E-20
  0.4700000      1.0874240E-20
  0.4705000      1.0814919E-20
  0.4710000      1.0564374E-20
  0.4715000      1.0114028E-20
  0.4720000      9.4583030E-21
  0.4725000      8.5949106E-21
  0.4730000      7.5251149E-21
  0.4735000      6.2539366E-21
  0.4740000      4.7903035E-21
  0.4745000      3.1471419E-21
  0.4750000      1.3413971E-21
  0.4755000     -6.0601658E-22
  0.4760000     -2.6703438E-21
  0.4765000     -4.8231892E-21
  0.4770000     -7.0328043E-21
  0.4775000     -9.2644447E-21
  0.4780000     -1.1480810E-20
  0.4785000     -1.3642559E-20
  0.4790000     -1.5708882E-20
  0.4795000     -1.7638143E-20
  0.4800000     -1.9388576E-20
  0.4805000     -2.0919015E-20
  0.4810000     -2.2189669E-20
  0.4815000     -2.3162912E-20
  0.4820000     -2.3804072E-20
  0.4825000     -2.4082228E-20
  0.4830000     -2.3970970E-20