  0.0000000E+00  0.0000000E+00
  5.0000002E-04  0.0000000E+00
  1.0000000E-03  0.0000000E+00
  1.5000000E-03  0.0000000E+00
  2.0000001E-03  0.0000000E+00
  2.4999999E-03  0.0000000E+00
  3.0000000E-03  0.0000000E+00
  3.5000001E-03  0.0000000E+00
  4.0000002E-03  0.0000000E+00
  4.4999998E-03  0.0000000E+00
  4.9999999E-03  0.0000000E+00
  5.5000000E-03  0.0000000E+00
  6.0000001E-03  0.0000000E+00
  6.5000001E-03  0.0000000E+00
  7.0000002E-03  0.0000000E+00
  7.4999998E-03  0.0000000E+00
  8.0000004E-03  0.0000000E+00
  8.5000005E-03  0.0000000E+00
  8.9999996E-03  0.0000000E+00
  9.4999997E-03  0.0000000E+00
  9.9999998E-03  0.0000000E+00
  1.0500000E-02  0.0000000E+00
  1.1000000E-02  0.0000000E+00
  1.1500000E-02  0.0000000E+00
  1.2000000E-02  0.0000000E+00
  1.2500000E-02  0.0000000E+00
  1.3000000E-02  0.0000000E+00
  1.3500000E-02  0.0000000E+00
  1.4000000E-02  0.0000000E+00
  1.4500000E-02  0.0000000E+00
  1.5000000E-02  0.0000000E+00
  1.5500000E-02  0.0000000E+00
  1.6000001E-02  0.0000000E+00
  1.6500000E-02  0.0000000E+00
  1.7000001E-02  0.0000000E+00
  1.7500000E-02  0.0000000E+00
  1.7999999E-02  0.0000000E+00
  1.8500000E-02  0.0000000E+00
  1.8999999E-02  0.0000000E+00
  1.9500000E-02  0.0000000E+00
  2.0000000E-02  0.0000000E+00
  2.0500001E-02  0.0000000E+00
  2.1000000E-02  0.0000000E+00
  2.1500001E-02  0.0000000E+00
  2.2000000E-02  0.0000000E+00
  2.2500001E-02  0.0000000E+00
  2.3000000E-02  0.0000000E+00
  2.3499999E-02  0.0000000E+00
  2.4000000E-02  0.0000000E+00
  2.4499999E-02  0.0000000E+00
  2.5000000E-02  0.0000000E+00
  2.5500000E-02  0.0000000E+00
  2.6000001E-02  0.0000000E+00
  2.6500000E-02  0.0000000E+00
  2.7000001E-02  0.0000000E+00
  2.7500000E-02  0.0000000E+00
  2.8000001E-02  0.0000000E+00
  2.8500000E-02  0.0000000E+00
  2.8999999E-02  0.0000000E+00
  2.9500000E-02  0.0000000E+00
  2.9999999E-02  0.0000000E+00
  3.0500000E-02  0.0000000E+00
  3.0999999E-02  0.0000000E+00
  3.1500001E-02  0.0000000E+00
  3.2000002E-02  0.0000000E+00
  3.2499999E-02  0.0000000E+00
  3.3000000E-02  0.0000000E+00
  3.3500001E-02  0.0000000E+00
  3.4000002E-02  0.0000000E+00
  3.4499999E-02  0.0000000E+00
  3.5000000E-02  0.0000000E+00
  3.5500001E-02  0.0000000E+00
  3.5999998E-02  0.0000000E+00
  3.6499999E-02  0.0000000E+00
  3.7000000E-02  0.0000000E+00
  3.7500001E-02  0.0000000E+00
  3.7999999E-02  0.0000000E+00
  3.8500000E-02  0.0000000E+00
  3.9000001E-02  0.0000000E+00
  3.9500002E-02  0.0000000E+00
  3.9999999E-02  0.0000000E+00
  4.0500000E-02  0.0000000E+00
  4.1000001E-02  0.0000000E+00
  4.1499998E-02  0.0000000E+00
  4.1999999E-02  0.0000000E+00
  4.2500000E-02  0.0000000E+00
  4.3000001E-02  0.0000000E+00
  4.3499999E-02  0.0000000E+00
  4.4000000E-02  0.0000000E+00
  4.4500001E-02  0.0000000E+00
  4.5000002E-02  0.0000000E+00
  4.5499999E-02  0.0000000E+00
  4.6000000E-02  0.0000000E+00
  4.6500001E-02  0.0000000E+00
  4.6999998E-02  0.0000000E+00
  4.7499999E-02  0.0000000E+00
  4.8000000E-02  0.0000000E+00
  4.8500001E-02  0.0000000E+00
  4.8999999E-02  0.0000000E+00
  4.9500000E-02  0.0000000E+00
  5.0000001E-02  0.0000000E+00
  5.0500002E-02  0.0000000E+00
  5.0999999E-02  0.0000000E+00
  5.1500000E-02  0.0000000E+00
  5.2000001E-02  0.0000000E+00
  5.2499998E-02  0.0000000E+00
  5.2999999E-02  0.0000000E+00
  5.3500000E-02  0.0000000E+00
  5.4000001E-02  0.0000000E+00
  5.4499999E-02  0.0000000E+00
  5.5000000E-02  0.0000000E+00
  5.5500001E-02  0.0000000E+00
  5.6000002E-02  0.0000000E+00
  5.6499999E-02  0.0000000E+00
  5.7000000E-02  0.0000000E+00
  5.7500001E-02  0.0000000E+00
  5.7999998E-02  0.0000000E+00
  5.8499999E-02  0.0000000E+00
  5.9000000E-02  0.0000000E+00
  5.9500001E-02  0.0000000E+00
  5.9999999E-02  0.0000000E+00
  6.0500000E-02  0.0000000E+00
  6.1000001E-02  0.0000000E+00
  6.1500002E-02  0.0000000E+00
  6.1999999E-02  0.0000000E+00
  6.2500000E-02  0.0000000E+00
  6.3000001E-02  0.0000000E+00
  6.3500002E-02  0.0000000E+00
  6.4000003E-02  0.0000000E+00
  6.4499997E-02  0.0000000E+00
  6.4999998E-02  0.0000000E+00
  6.5499999E-02  0.0000000E+00
  6.6000000E-02  0.0000000E+00
  6.6500001E-02  0.0000000E+00
  6.7000002E-02  0.0000000E+00
  6.7500003E-02  0.0000000E+00
  6.8000004E-02  0.0000000E+00
  6.8499997E-02  0.0000000E+00
  6.8999998E-02  0.0000000E+00
  6.9499999E-02  0.0000000E+00
  7.0000000E-02  0.0000000E+00
  7.0500001E-02  0.0000000E+00
  7.1000002E-02  0.0000000E+00
  7.1500003E-02  0.0000000E+00
  7.1999997E-02  0.0000000E+00
  7.2499998E-02  0.0000000E+00
  7.2999999E-02  0.0000000E+00
  7.3500000E-02  0.0000000E+00
  7.4000001E-02  0.0000000E+00
  7.4500002E-02  0.0000000E+00
  7.5000003E-02  0.0000000E+00
  7.5499997E-02  0.0000000E+00
  7.5999998E-02  0.0000000E+00
  7.6499999E-02  0.0000000E+00
  7.7000000E-02  0.0000000E+00
  7.7500001E-02  0.0000000E+00
  7.8000002E-02  0.0000000E+00
  7.8500003E-02  0.0000000E+00
  7.9000004E-02  0.0000000E+00
  7.9499997E-02  0.0000000E+00
  7.9999998E-02  0.0000000E+00
  8.0499999E-02  0.0000000E+00
  8.1000000E-02  0.0000000E+00
  8.1500001E-02  0.0000000E+00
  8.2000002E-02  0.0000000E+00
  8.2500003E-02  0.0000000E+00
  8.2999997E-02  0.0000000E+00
  8.3499998E-02  0.0000000E+00
  8.3999999E-02  0.0000000E+00
  8.4500000E-02  0.0000000E+00
  8.5000001E-02  0.0000000E+00
  8.5500002E-02  0.0000000E+00
  8.6000003E-02  0.0000000E+00
  8.6499996E-02  0.0000000E+00
  8.6999997E-02  0.0000000E+00
  8.7499999E-02  0.0000000E+00
  8.8000000E-02  0.0000000E+00
  8.8500001E-02  0.0000000E+00
  8.9000002E-02  0.0000000E+00
  8.9500003E-02  0.0000000E+00
  9.0000004E-02  0.0000000E+00
  9.0499997E-02  0.0000000E+00
  9.0999998E-02  0.0000000E+00
  9.1499999E-02  0.0000000E+00
  9.2000000E-02  0.0000000E+00
  9.2500001E-02  0.0000000E+00
  9.3000002E-02  0.0000000E+00
  9.3500003E-02  0.0000000E+00
  9.3999997E-02  0.0000000E+00
  9.4499998E-02  0.0000000E+00
  9.4999999E-02  0.0000000E+00
  9.5500000E-02  0.0000000E+00
  9.6000001E-02  0.0000000E+00
  9.6500002E-02  0.0000000E+00
  9.7000003E-02  0.0000000E+00
  9.7499996E-02  0.0000000E+00
  9.7999997E-02  0.0000000E+00
  9.8499998E-02  0.0000000E+00
  9.8999999E-02  0.0000000E+00
  9.9500000E-02  0.0000000E+00
  0.1000000      0.0000000E+00
  0.1005000      0.0000000E+00
  0.1010000      0.0000000E+00
  0.1015000      0.0000000E+00
  0.1020000      0.0000000E+00
  0.1025000      0.0000000E+00
  0.1030000      0.0000000E+00
  0.1035000      0.0000000E+00
  0.1040000      0.0000000E+00
  0.1045000      0.0000000E+00
  0.1050000      0.0000000E+00
  0.1055000      0.0000000E+00
  0.1060000      0.0000000E+00
  0.1065000      0.0000000E+00
  0.1070000      0.0000000E+00
  0.1075000      0.0000000E+00
  0.1080000      0.0000000E+00
  0.1085000      0.0000000E+00
  0.1090000      0.0000000E+00
  0.1095000      0.0000000E+00
  0.1100000      0.0000000E+00
  0.1105000      0.0000000E+00
  0.1110000      0.0000000E+00
  0.1115000      0.0000000E+00
  0.1120000      0.0000000E+00
  0.1125000      0.0000000E+00
  0.1130000      0.0000000E+00
  0.1135000      0.0000000E+00
  0.1140000      0.0000000E+00
  0.1145000      0.0000000E+00
  0.1150000      0.0000000E+00
  0.1155000      0.0000000E+00
  0.1160000      0.0000000E+00
  0.1165000      0.0000000E+00
  0.1170000      0.0000000E+00
  0.1175000      0.0000000E+00
  0.1180000      0.0000000E+00
  0.1185000      0.0000000E+00
  0.1190000      0.0000000E+00
  0.1195000      0.0000000E+00
  0.1200000      0.0000000E+00
  0.1205000      0.0000000E+00
  0.1210000      0.0000000E+00
  0.1215000      0.0000000E+00
  0.1220000      0.0000000E+00
  0.1225000      0.0000000E+00
  0.1230000      0.0000000E+00
  0.1235000      0.0000000E+00
  0.1240000      0.0000000E+00
  0.1245000      0.0000000E+00
  0.1250000      0.0000000E+00
  0.1255000      0.0000000E+00
  0.1260000      0.0000000E+00
  0.1265000      0.0000000E+00
  0.1270000      0.0000000E+00
  0.1275000      0.0000000E+00
  0.1280000      0.0000000E+00
  0.1285000      0.0000000E+00
  0.1290000      0.0000000E+00
  0.1295000      0.0000000E+00
  0.1300000      0.0000000E+00
  0.1305000      0.0000000E+00
  0.1310000      0.0000000E+00
  0.1315000      0.0000000E+00
  0.1320000      0.0000000E+00
  0.1325000      0.0000000E+00
  0.1330000      0.0000000E+00
  0.1335000      0.0000000E+00
  0.1340000      0.0000000E+00
  0.1345000      0.0000000E+00
  0.1350000      0.0000000E+00
  0.1355000      0.0000000E+00
  0.1360000      0.0000000E+00
  0.1365000      0.0000000E+00
  0.1370000      0.0000000E+00
  0.1375000      0.0000000E+00
  0.1380000      0.0000000E+00
  0.1385000      0.0000000E+00
  0.1390000      0.0000000E+00
  0.1395000      0.0000000E+00
  0.1400000      0.0000000E+00
  0.1405000      0.0000000E+00
  0.1410000      0.0000000E+00
  0.1415000      0.0000000E+00
  0.1420000      0.0000000E+00
  0.1425000      0.0000000E+00
  0.1430000      0.0000000E+00
  0.1435000      0.0000000E+00
  0.1440000      0.0000000E+00
  0.1445000      0.0000000E+00
  0.1450000      0.0000000E+00
  0.1455000      0.0000000E+00
  0.1460000      0.0000000E+00
  0.1465000      0.0000000E+00
  0.1470000      0.0000000E+00
  0.1475000      0.0000000E+00
  0.1480000      0.0000000E+00
  0.1485000      0.0000000E+00
  0.1490000      0.0000000E+00
  0.1495000      0.0000000E+00
  0.1500000      0.0000000E+00
  0.1505000      0.0000000E+00
  0.1510000      0.0000000E+00
  0.1515000      0.0000000E+00
  0.1520000      0.0000000E+00
  0.1525000      0.0000000E+00
  0.1530000      0.0000000E+00
  0.1535000      0.0000000E+00
  0.1540000      0.0000000E+00
  0.1545000      0.0000000E+00
  0.1550000      0.0000000E+00
  0.1555000      0.0000000E+00
  0.1560000      0.0000000E+00
  0.1565000      0.0000000E+00
  0.1570000      0.0000000E+00
  0.1575000      0.0000000E+00
  0.1580000      0.0000000E+00
  0.1585000      0.0000000E+00
  0.1590000      0.0000000E+00
  0.1595000      0.0000000E+00
  0.1600000      0.0000000E+00
  0.1605000      0.0000000E+00
  0.1610000      0.0000000E+00
  0.1615000      0.0000000E+00
  0.1620000      0.0000000E+00
  0.1625000      0.0000000E+00
  0.1630000      0.0000000E+00
  0.1635000      0.0000000E+00
  0.1640000      0.0000000E+00
  0.1645000      0.0000000E+00
  0.1650000      0.0000000E+00
  0.1655000      0.0000000E+00
  0.1660000      0.0000000E+00
  0.1665000      0.0000000E+00
  0.1670000      0.0000000E+00
  0.1675000      0.0000000E+00
  0.1680000      0.0000000E+00
  0.1685000      0.0000000E+00
  0.1690000      0.0000000E+00
  0.1695000      0.0000000E+00
  0.1700000      0.0000000E+00
  0.1705000      0.0000000E+00
  0.1710000      0.0000000E+00
  0.1715000      0.0000000E+00
  0.1720000      0.0000000E+00
  0.1725000      0.0000000E+00
  0.1730000      0.0000000E+00
  0.1735000      0.0000000E+00
  0.1740000      0.0000000E+00
  0.1745000      0.0000000E+00
  0.1750000      0.0000000E+00
  0.1755000      0.0000000E+00
  0.1760000      0.0000000E+00
  0.1765000      0.0000000E+00
  0.1770000      0.0000000E+00
  0.1775000      0.0000000E+00
  0.1780000      0.0000000E+00
  0.1785000      0.0000000E+00
  0.1790000      0.0000000E+00
  0.1795000      0.0000000E+00
  0.1800000      0.0000000E+00
  0.1805000      0.0000000E+00
  0.1810000      0.0000000E+00
  0.1815000      0.0000000E+00
  0.1820000      0.0000000E+00
  0.1825000      0.0000000E+00
  0.1830000      0.0000000E+00
  0.1835000      0.0000000E+00
  0.1840000      0.0000000E+00
  0.1845000      0.0000000E+00
  0.1850000      0.0000000E+00
  0.1855000      0.0000000E+00
  0.1860000      0.0000000E+00
  0.1865000      0.0000000E+00
  0.1870000      0.0000000E+00
  0.1875000      0.0000000E+00
  0.1880000      0.0000000E+00
  0.1885000      0.0000000E+00
  0.1890000      0.0000000E+00
  0.1895000      0.0000000E+00
  0.1900000      0.0000000E+00
  0.1905000      0.0000000E+00
  0.1910000      0.0000000E+00
  0.1915000      0.0000000E+00
  0.1920000      0.0000000E+00
  0.1925000      0.0000000E+00
  0.1930000      0.0000000E+00
  0.1935000      0.0000000E+00
  0.1940000      0.0000000E+00
  0.1945000      0.0000000E+00
  0.1950000      0.0000000E+00
  0.1955000      0.0000000E+00
  0.1960000      0.0000000E+00
  0.1965000      0.0000000E+00
  0.1970000      0.0000000E+00
  0.1975000      0.0000000E+00
  0.1980000      0.0000000E+00
  0.1985000      0.0000000E+00
  0.1990000      0.0000000E+00
  0.1995000      0.0000000E+00
  0.2000000      0.0000000E+00
  0.2005000      0.0000000E+00
  0.2010000      0.0000000E+00
  0.2015000      0.0000000E+00
  0.2020000      0.0000000E+00
  0.2025000      0.0000000E+00
  0.2030000      0.0000000E+00
  0.2035000      0.0000000E+00
  0.2040000      0.0000000E+00
  0.2045000      0.0000000E+00
  0.2050000      0.0000000E+00
  0.2055000      0.0000000E+00
  0.2060000      0.0000000E+00
  0.2065000      0.0000000E+00
  0.2070000      0.0000000E+00
  0.2075000      0.0000000E+00
  0.2080000      0.0000000E+00
  0.2085000      0.0000000E+00
  0.2090000      0.0000000E+00
  0.2095000      0.0000000E+00
  0.2100000      0.0000000E+00
  0.2105000      0.0000000E+00
  0.2110000      0.0000000E+00
  0.2115000      0.0000000E+00
  0.2120000      0.0000000E+00
  0.2125000      0.0000000E+00
  0.2130000      0.0000000E+00
  0.2135000      0.0000000E+00
  0.2140000      0.0000000E+00
  0.2145000      0.0000000E+00
  0.2150000      0.0000000E+00
  0.2155000      0.0000000E+00
  0.2160000      0.0000000E+00
  0.2165000      0.0000000E+00
  0.2170000      0.0000000E+00
  0.2175000      0.0000000E+00
  0.2180000      0.0000000E+00
  0.2185000      0.0000000E+00
  0.2190000      0.0000000E+00
  0.2195000      0.0000000E+00
  0.2200000      0.0000000E+00
  0.2205000      0.0000000E+00
  0.2210000      0.0000000E+00
  0.2215000      0.0000000E+00
  0.2220000      0.0000000E+00
  0.2225000      0.0000000E+00
  0.2230000      0.0000000E+00
  0.2235000      0.0000000E+00
  0.2240000      0.0000000E+00
  0.2245000      0.0000000E+00
  0.2250000      0.0000000E+00
  0.2255000      0.0000000E+00
  0.2260000      0.0000000E+00
  0.2265000      0.0000000E+00
  0.2270000      0.0000000E+00
  0.2275000      0.0000000E+00
  0.2280000      0.0000000E+00
  0.2285000      0.0000000E+00
  0.2290000      0.0000000E+00
  0.2295000      0.0000000E+00
  0.2300000      0.0000000E+00
  0.2305000      0.0000000E+00
  0.2310000      0.0000000E+00
  0.2315000      0.0000000E+00
  0.2320000      0.0000000E+00
  0.2325000      0.0000000E+00
  0.2330000      0.0000000E+00
  0.2335000      0.0000000E+00
  0.2340000      0.0000000E+00
  0.2345000      0.0000000E+00
  0.2350000      0.0000000E+00
  0.2355000      0.0000000E+00
  0.2360000      0.0000000E+00
  0.2365000      0.0000000E+00
  0.2370000      0.0000000E+00
  0.2375000      0.0000000E+00
  0.2380000      0.0000000E+00
  0.2385000      0.0000000E+00
  0.2390000      0.0000000E+00
  0.2395000      0.0000000E+00
  0.2400000      0.0000000E+00
  0.2405000      0.0000000E+00
  0.2410000      0.0000000E+00
  0.2415000      0.0000000E+00
  0.2420000      0.0000000E+00
  0.2425000      0.0000000E+00
  0.2430000      0.0000000E+00
  0.2435000      0.0000000E+00
  0.2440000      0.0000000E+00
  0.2445000      0.0000000E+00
  0.2450000      0.0000000E+00
  0.2455000      0.0000000E+00
  0.2460000      0.0000000E+00
  0.2465000      0.0000000E+00
  0.2470000      0.0000000E+00
  0.2475000      0.0000000E+00
  0.2480000      0.0000000E+00
  0.2485000      0.0000000E+00
  0.2490000      0.0000000E+00
  0.2495000      0.0000000E+00
  0.2500000      0.0000000E+00
  0.2505000      0.0000000E+00
  0.2510000      0.0000000E+00
  0.2515000      0.0000000E+00
  0.2520000      0.0000000E+00
  0.2525000      0.0000000E+00
  0.2530000      0.0000000E+00
  0.2535000      0.0000000E+00
  0.2540000      0.0000000E+00
  0.2545000      0.0000000E+00
  0.2550000      0.0000000E+00
  0.2555000      0.0000000E+00
  0.2560000      0.0000000E+00
  0.2565000      0.0000000E+00
  0.2570000      0.0000000E+00
  0.2575000      0.0000000E+00
  0.2580000      0.0000000E+00
  0.2585000      0.0000000E+00
  0.2590000      0.0000000E+00
  0.2595000      0.0000000E+00
  0.2600000      0.0000000E+00
  0.2605000      0.0000000E+00
  0.2610000      0.0000000E+00
  0.2615000      0.0000000E+00
  0.2620000      0.0000000E+00
  0.2625000      0.0000000E+00
  0.2630000      0.0000000E+00
  0.2635000      0.0000000E+00
  0.2640000      0.0000000E+00
  0.2645000      0.0000000E+00
  0.2650000      0.0000000E+00
  0.2655000      0.0000000E+00
  0.2660000      0.0000000E+00
  0.2665000      0.0000000E+00
  0.2670000      0.0000000E+00
  0.2675000      0.0000000E+00
  0.2680000      0.0000000E+00
  0.2685000      0.0000000E+00
  0.2690000      0.0000000E+00
  0.2695000      0.0000000E+00
  0.2700000      0.0000000E+00
  0.2705000      0.0000000E+00
  0.2710000      0.0000000E+00
  0.2715000      0.0000000E+00
  0.2720000      0.0000000E+00
  0.2725000      0.0000000E+00
  0.2730000      0.0000000E+00
  0.2735000      0.0000000E+00
  0.2740000      0.0000000E+00
  0.2745000      0.0000000E+00
  0.2750000      0.0000000E+00
  0.2755000      0.0000000E+00
  0.2760000      0.0000000E+00
  0.2765000      0.0000000E+00
  0.2770000      0.0000000E+00
  0.2775000      0.0000000E+00
  0.2780000      0.0000000E+00
  0.2785000      0.0000000E+00
  0.2790000      0.0000000E+00
  0.2795000      0.0000000E+00
  0.2800000      0.0000000E+00
  0.2805000      0.0000000E+00
  0.2810000      0.0000000E+00
  0.2815000      0.0000000E+00
  0.2820000      0.0000000E+00
  0.2825000      0.0000000E+00
  0.2830000      0.0000000E+00
  0.2835000      0.0000000E+00
  0.2840000      0.0000000E+00
  0.2845000      0.0000000E+00
  0.2850000      0.0000000E+00
  0.2855000      0.0000000E+00
  0.2860000      0.0000000E+00
  0.2865000      0.0000000E+00
  0.2870000      0.0000000E+00
  0.2875000      0.0000000E+00
  0.2880000      0.0000000E+00
  0.2885000      0.0000000E+00
  0.2890000      0.0000000E+00
  0.2895000      0.0000000E+00
  0.2900000      0.0000000E+00
  0.2905000      0.0000000E+00
  0.2910000      0.0000000E+00
  0.2915000      0.0000000E+00
  0.2920000      0.0000000E+00
  0.2925000      0.0000000E+00
  0.2930000      0.0000000E+00
  0.2935000      0.0000000E+00
  0.2940000      0.0000000E+00
  0.2945000      0.0000000E+00
  0.2950000      0.0000000E+00
  0.2955000      0.0000000E+00
  0.2960000      0.0000000E+00
  0.2965000      0.0000000E+00
  0.2970000      0.0000000E+00
  0.2975000      0.0000000E+00
  0.2980000      0.0000000E+00
  0.2985000      0.0000000E+00
  0.2990000      0.0000000E+00
  0.2995000      0.0000000E+00
  0.3000000      0.0000000E+00
  0.3005000      0.0000000E+00
  0.3010000      0.0000000E+00
  0.3015000      0.0000000E+00
  0.3020000      0.0000000E+00
  0.3025000      0.0000000E+00
  0.3030000      0.0000000E+00
  0.3035000      0.0000000E+00
  0.3040000      0.0000000E+00
  0.3045000      0.0000000E+00
  0.3050000      0.0000000E+00
  0.3055000      0.0000000E+00
  0.3060000      0.0000000E+00
  0.3065000      0.0000000E+00
  0.3070000      0.0000000E+00
  0.3075000      0.0000000E+00
  0.3080000      0.0000000E+00
  0.3085000      0.0000000E+00
  0.3090000      0.0000000E+00
  0.3095000      0.0000000E+00
  0.3100000      0.0000000E+00
  0.3105000      0.0000000E+00
  0.3110000      0.0000000E+00
  0.3115000      0.0000000E+00
  0.3120000      0.0000000E+00
  0.3125000      0.0000000E+00
  0.3130000      0.0000000E+00
  0.3135000      0.0000000E+00
  0.3140000      0.0000000E+00
  0.3145000      0.0000000E+00
  0.3150000      0.0000000E+00
  0.3155000      0.0000000E+00
  0.3160000      0.0000000E+00
  0.3165000      0.0000000E+00
  0.3170000      0.0000000E+00
  0.3175000      0.0000000E+00
  0.3180000      0.0000000E+00
  0.3185000      0.0000000E+00
  0.3190000      0.0000000E+00
  0.3195000      0.0000000E+00
  0.3200000      0.0000000E+00
  0.3205000      0.0000000E+00
  0.3210000      0.0000000E+00
  0.3215000      0.0000000E+00
  0.3220000      0.0000000E+00
  0.3225000      0.0000000E+00
  0.3230000      0.0000000E+00
  0.3235000      0.0000000E+00
  0.3240000      0.0000000E+00
  0.3245000      0.0000000E+00
  0.3250000      0.0000000E+00
  0.3255000      0.0000000E+00
  0.3260000      0.0000000E+00
  0.3265000      0.0000000E+00
  0.3270000      0.0000000E+00
  0.3275000      0.0000000E+00
  0.3280000      0.0000000E+00
  0.3285000      0.0000000E+00
  0.3290000      0.0000000E+00
  0.3295000      0.0000000E+00
  0.3300000      0.0000000E+00
  0.3305000      0.0000000E+00
  0.3310000      0.0000000E+00
  0.3315000      0.0000000E+00
  0.3320000      0.0000000E+00
  0.3325000      0.0000000E+00
  0.3330000      0.0000000E+00
  0.3335000      0.0000000E+00
  0.3340000      0.0000000E+00
  0.3345000      0.0000000E+00
  0.3350000      0.0000000E+00
  0.3355000      0.0000000E+00
  0.3360000      0.0000000E+00
  0.3365000      0.0000000E+00
  0.3370000      0.0000000E+00
  0.3375000      0.0000000E+00
  0.3380000      0.0000000E+00
  0.3385000      0.0000000E+00
  0.3390000      0.0000000E+00
  0.3395000      0.0000000E+00
  0.3400000      0.0000000E+00
  0.3405000      0.0000000E+00
  0.3410000      0.0000000E+00
  0.3415000      0.0000000E+00
  0.3420000      0.0000000E+00
  0.3425000      0.0000000E+00
  0.3430000      0.0000000E+00
  0.3435000      0.0000000E+00
  0.3440000      0.0000000E+00
  0.3445000      0.0000000E+00
  0.3450000      0.0000000E+00
  0.3455000      0.0000000E+00
  0.3460000      0.0000000E+00
  0.3465000      0.0000000E+00
  0.3470000      0.0000000E+00
  0.3475000      0.0000000E+00
  0.3480000      0.0000000E+00
  0.3485000      0.0000000E+00
  0.3490000      0.0000000E+00
  0.3495000      0.0000000E+00
  0.3500000      0.0000000E+00
  0.3505000      0.0000000E+00
  0.3510000      0.0000000E+00
  0.3515000      0.0000000E+00
  0.3520000      0.0000000E+00
  0.3525000      0.0000000E+00
  0.3530000      0.0000000E+00
  0.3535000      0.0000000E+00
  0.3540000      0.0000000E+00
  0.3545000      0.0000000E+00
  0.3550000      0.0000000E+00
  0.3555000      0.0000000E+00
  0.3560000      0.0000000E+00
  0.3565000      0.0000000E+00
  0.3570000      0.0000000E+00
  0.3575000      0.0000000E+00
  0.3580000      0.0000000E+00
  0.3585000      0.0000000E+00
  0.3590000      0.0000000E+00
  0.3595000      0.0000000E+00
  0.3600000      0.0000000E+00
  0.3605000      0.0000000E+00
  0.3610000      0.0000000E+00
  0.3615000      0.0000000E+00
  0.3620000      0.0000000E+00
  0.3625000      0.0000000E+00
  0.3630000      0.0000000E+00
  0.3635000      0.0000000E+00
  0.3640000      0.0000000E+00
  0.3645000      0.0000000E+00
  0.3650000      0.0000000E+00
  0.3655000      0.0000000E+00
  0.3660000      0.0000000E+00
  0.3665000      0.0000000E+00
  0.3670000      0.0000000E+00
  0.3675000      0.0000000E+00
  0.3680000      0.0000000E+00
  0.3685000      0.0000000E+00
  0.3690000      0.0000000E+00
  0.3695000      0.0000000E+00
  0.3700000      0.0000000E+00
  0.3705000      0.0000000E+00
  0.3710000      0.0000000E+00
  0.3715000      0.0000000E+00
  0.3720000      0.0000000E+00
  0.3725000      0.0000000E+00
  0.3730000      0.0000000E+00
  0.3735000      0.0000000E+00
  0.3740000      0.0000000E+00
  0.3745000      0.0000000E+00
  0.3750000      0.0000000E+00
  0.3755000      0.0000000E+00
  0.3760000      0.0000000E+00
  0.3765000      0.0000000E+00
  0.3770000      0.0000000E+00
  0.3775000      0.0000000E+00
  0.3780000      0.0000000E+00
  0.3785000      0.0000000E+00
  0.3790000      0.0000000E+00
  0.3795000      0.0000000E+00
  0.3800000      0.0000000E+00
  0.3805000      0.0000000E+00
  0.3810000      0.0000000E+00
  0.3815000      0.0000000E+00
  0.3820000     -1.2543384E-38
  0.3825000     -1.3068680E-38
  0.3830000     -1.3545762E-38
  0.3835000      0.0000000E+00
  0.3840000      0.0000000E+00
  0.3845000      1.6588756E-38
  0.3850000      0.0000000E+00
  0.3855000      0.0000000E+00
  0.3860000     -4.2666214E-38
  0.3865000     -8.5904809E-38
  0.3870000     -1.3330847E-37
  0.3875000     -1.8089240E-37
  0.3880000     -2.1233539E-37
  0.3885000     -2.3208624E-37
  0.3890000     -2.3114997E-37
  0.3895000     -2.0342926E-37
  0.3900000     -1.4996101E-37
  0.3905000     -7.8749706E-38
  0.3910000      0.0000000E+00
  0.3915000      7.7007634E-38
  0.3920000      1.4135398E-37
  0.3925000      1.8792181E-37
  0.3930000      2.1317458E-37
  0.3935000      2.1850052E-37
  0.3940000      2.0944110E-37
  0.3945000      1.9343963E-37
  0.3950000      1.7907498E-37
  0.3955000      1.7362112E-37
  0.3960000      1.8129395E-37
  0.3965000      2.0062794E-37
  0.3970000      2.2605126E-37
  0.3975000      2.4889141E-37
  0.3980000      2.5913939E-37
  0.3985000      2.4728983E-37
  0.3990000      2.0707366E-37
  0.3995000      1.3640113E-37
  0.4000000      3.8046363E-38
  0.4005000     -8.0482367E-38
  0.4010000     -2.0962037E-37
  0.4015000     -3.3679224E-37
  0.4020000     -4.5108291E-37
  0.4025000     -5.4492538E-37
  0.4030000     -6.1466973E-37
  0.4035000     -6.6104056E-37
  0.4040000     -6.8818987E-37
  0.4045000     -7.0257607E-37
  0.4050000     -7.1068253E-37
  0.4055000     -7.1727011E-37
  0.4060000     -7.2407903E-37
  0.4065000     -7.2855476E-37
  0.4070000     -7.2492936E-37
  0.4075000     -7.0516630E-37
  0.4080000     -6.6069250E-37
  0.4085000     -5.8432913E-37
  0.4090000     -4.7142084E-37
  0.4095000     -3.2124839E-37
  0.4100000     -1.3742542E-37
  0.4105000      7.2616211E-38
  0.4110000      2.9844962E-37
  0.4115000      5.2831454E-37
  0.4120000      7.5070895E-37
  0.4125000      9.5600258E-37
  0.4130000      1.1371848E-36
  0.4135000      1.2902859E-36
  0.4140000      1.4141905E-36
  0.4145000      1.5102737E-36
  0.4150000      1.5810125E-36
  0.4155000      1.6292160E-36
  0.4160000      1.6562670E-36
  0.4165000      1.6613457E-36
  0.4170000      1.6417141E-36
  0.4175000      1.5918829E-36
  0.4180000      1.5055574E-36
  0.4185000      1.3760542E-36
  0.4190000      1.1984284E-36
  0.4195000      9.7034506E-37
  0.4200000      6.9350750E-37
  0.4205000      3.7379385E-37
  0.4210000      2.1373686E-38
  0.4215000     -3.5010003E-37
  0.4220000     -7.2488120E-37
  0.4225000     -1.0868825E-36
  0.4230000     -1.4212522E-36
  0.4235000     -1.7158264E-36
  0.4240000     -1.9619138E-36
  0.4245000     -2.1543820E-36
  0.4250000     -2.2910799E-36
  0.4255000     -2.3715920E-36
  0.4260000     -2.3958586E-36
  0.4265000     -2.3629205E-36
  0.4270000     -2.2701907E-36
  0.4275000     -2.1134388E-36
  0.4280000     -1.8877916E-36
  0.4285000     -1.5892036E-36
  0.4290000     -1.2164890E-36
  0.4295000     -7.7323273E-37
  0.4300000     -2.6922473E-37
  0.4305000      2.7888286E-37
  0.4310000      8.4806045E-37
  0.4315000      1.4103740E-36
  0.4320000      1.9352892E-36
  0.4325000      2.3923048E-36
  0.4330000      2.7535779E-36
  0.4335000      2.9959602E-36
  0.4340000      3.1022203E-36
  0.4345000      3.0613061E-36
  0.4350000      2.8677549E-36
  0.4355000      2.5205830E-36
  0.4360000      2.0220431E-36
  0.4365000      1.3766649E-36
  0.4370000      5.9093339E-37
  0.4375000     -3.2627618E-37
  0.4380000     -1.3625435E-36
  0.4385000     -2.5003364E-36
  0.4390000     -3.7153252E-36
  0.4395000     -4.9750273E-36
  0.4400000     -6.2382805E-36
  0.4405000     -7.4556016E-36
  0.4410000     -8.5705491E-36
  0.4415000     -9.5219598E-36
  0.4420000     -1.0246758E-35
  0.4425000     -1.0682982E-35
  0.4430000     -1.0772673E-35
  0.4435000     -1.0464347E-35
  0.4440000     -9.7149184E-36
  0.4445000     -8.4910425E-36
  0.4450000     -6.7700417E-36
  0.4455000     -4.5405320E-36
  0.4460000     -1.8031085E-36
  0.4465000      1.4288929E-36
  0.4470000      5.1283574E-36
  0.4475000      9.2531437E-36
  0.4480000      1.3744696E-35
  0.4485000      1.8526744E-35
  0.4490000      2.3504311E-35
  0.4495000      2.8563233E-35
  0.4500000      3.3570408E-35
  0.4505000      3.8374914E-35
  0.4510000      4.2810038E-35
  0.4515000      4.6696266E-35
  0.4520000      4.9845105E-35
  0.4525000      5.2063580E-35
  0.4530000      5.3159373E-35
  0.4535000      5.2946303E-35
  0.4540000      5.1249998E-35
  0.4545000      4.7913686E-35
  0.4550000      4.2803764E-35
  0.4555000      3.5815315E-35
  0.4560000      2.6877320E-35
  0.4565000      1.5957725E-35
  0.4570000      3.0683706E-36
  0.4575000     -1.1730340E-35
  0.4580000     -2.8324805E-35
  0.4585000     -4.6543926E-35
  0.4590000     -6.6155209E-35
  0.4595000     -8.6861588E-35
  0.4600000     -1.0829927E-34
  0.4605000     -1.3003715E-34
  0.4610000     -1.5157809E-34
  0.4615000     -1.7236242E-34
  0.4620000     -1.9177383E-34
  0.4625000     -2.0914772E-34
  0.4630000     -2.2378203E-34
  0.4635000     -2.3495028E-34
  0.4640000     -2.4191653E-34
  0.4645000     -2.4395211E-34
  0.4650000     -2.4035370E-34
  0.4655000     -2.3046297E-34
  0.4660000     -2.1368710E-34
  0.4665000     -1.8952087E-34
  0.4670000     -1.5756939E-34
  0.4675000     -1.1757202E-34
  0.4680000     -6.9426424E-35
  0.4685000     -1.3212922E-35
  0.4690000      5.0782492E-35
  0.4695000      1.2204672E-34
  0.4700000      1.9982125E-34
  0.4705000      2.8308776E-34
  0.4710000      3.7055898E-34
  0.4715000      4.6067550E-34
  0.4720000      5.5160968E-34
  0.4725000      6.4127657E-34
  0.4730000      7.2735320E-34
  0.4735000      8.0730601E-34
  0.4740000      8.7842663E-34
  0.4745000      9.3787671E-34
  0.4750000      9.8274101E-34
  0.4755000      1.0100897E-33
  0.4760000      1.0170490E-33
  0.4765000      1.0008795E-33
  0.4770000      9.5906141E-34
  0.4775000      8.8938564E-34
  0.4780000      7.9004911E-34
  0.4785000      6.5975103E-34
  0.4790000      4.9778935E-34
  0.4795000      3.0415306E-34
  0.4800000      7.9608449E-35
  0.4805000     -1.7422422E-34
  0.4810000     -4.5480698E-34
  0.4815000     -7.5863701E-34
  0.4820000     -1.0812172E-33
  0.4825000     -1.4170503E-33
  0.4830000     -1.7596572E-33