  0.0000000E+00  0.0000000E+00
  5.0000002E-04  0.0000000E+00
  1.0000000E-03  0.0000000E+00
  1.5000000E-03  0.0000000E+00
  2.0000001E-03  0.0000000E+00
  2.4999999E-03  0.0000000E+00
  3.0000000E-03  0.0000000E+00
  3.5000001E-03  0.0000000E+00
  4.0000002E-03  0.0000000E+00
  4.4999998E-03  0.0000000E+00
  4.9999999E-03  0.0000000E+00
  5.5000000E-03  0.0000000E+00
  6.0000001E-03  0.0000000E+00
  6.5000001E-03  0.0000000E+00
  7.0000002E-03  0.0000000E+00
  7.4999998E-03  0.0000000E+00
  8.0000004E-03  0.0000000E+00
  8.5000005E-03  0.0000000E+00
  8.9999996E-03  0.0000000E+00
  9.4999997E-03  0.0000000E+00
  9.9999998E-03  0.0000000E+00
  1.0500000E-02  0.0000000E+00
  1.1000000E-02  0.0000000E+00
  1.1500000E-02  0.0000000E+00
  1.2000000E-02  0.0000000E+00
  1.2500000E-02  0.0000000E+00
  1.3000000E-02  0.0000000E+00
  1.3500000E-02  0.0000000E+00
  1.4000000E-02  0.0000000E+00
  1.4500000E-02  0.0000000E+00
  1.5000000E-02  0.0000000E+00
  1.5500000E-02  0.0000000E+00
  1.6000001E-02  0.0000000E+00
  1.6500000E-02  0.0000000E+00
  1.7000001E-02  0.0000000E+00
  1.7500000E-02  0.0000000E+00
  1.7999999E-02  0.0000000E+00
  1.8500000E-02  0.0000000E+00
  1.8999999E-02  0.0000000E+00
  1.9500000E-02  0.0000000E+00
  2.0000000E-02  0.0000000E+00
  2.0500001E-02  0.0000000E+00
  2.1000000E-02  0.0000000E+00
  2.1500001E-02  0.0000000E+00
  2.2000000E-02  0.0000000E+00
  2.2500001E-02  0.0000000E+00
  2.3000000E-02  0.0000000E+00
  2.3499999E-02  0.0000000E+00
  2.4000000E-02  0.0000000E+00
  2.4499999E-02  0.0000000E+00
  2.5000000E-02  0.0000000E+00
  2.5500000E-02  0.0000000E+00
  2.6000001E-02  0.0000000E+00
  2.6500000E-02  0.0000000E+00
  2.7000001E-02  0.0000000E+00
  2.7500000E-02  0.0000000E+00
  2.8000001E-02  0.0000000E+00
  2.8500000E-02  0.0000000E+00
  2.8999999E-02  0.0000000E+00
  2.9500000E-02  0.0000000E+00
  2.9999999E-02  0.0000000E+00
  3.0500000E-02  0.0000000E+00
  3.0999999E-02  0.0000000E+00
  3.1500001E-02  0.0000000E+00
  3.2000002E-02  0.0000000E+00
  3.2499999E-02  0.0000000E+00
  3.3000000E-02  0.0000000E+00
  3.3500001E-02  0.0000000E+00
  3.4000002E-02  0.0000000E+00
  3.4499999E-02  0.0000000E+00
  3.5000000E-02  0.0000000E+00
  3.5500001E-02  0.0000000E+00
  3.5999998E-02  0.0000000E+00
  3.6499999E-02  0.0000000E+00
  3.7000000E-02  0.0000000E+00
  3.7500001E-02  0.0000000E+00
  3.7999999E-02  0.0000000E+00
  3.8500000E-02  0.0000000E+00
  3.9000001E-02  0.0000000E+00
  3.9500002E-02  0.0000000E+00
  3.9999999E-02  0.0000000E+00
  4.0500000E-02  0.0000000E+00
  4.1000001E-02  0.0000000E+00
  4.1499998E-02  0.0000000E+00
  4.1999999E-02  0.0000000E+00
  4.2500000E-02  0.0000000E+00
  4.3000001E-02  0.0000000E+00
  4.3499999E-02  0.0000000E+00
  4.4000000E-02  0.0000000E+00
  4.4500001E-02  0.0000000E+00
  4.5000002E-02  0.0000000E+00
  4.5499999E-02  0.0000000E+00
  4.6000000E-02  0.0000000E+00
  4.6500001E-02  0.0000000E+00
  4.6999998E-02  0.0000000E+00
  4.7499999E-02  0.0000000E+00
  4.8000000E-02  0.0000000E+00
  4.8500001E-02  0.0000000E+00
  4.8999999E-02  0.0000000E+00
  4.9500000E-02  0.0000000E+00
  5.0000001E-02  0.0000000E+00
  5.0500002E-02  0.0000000E+00
  5.0999999E-02  0.0000000E+00
  5.1500000E-02  0.0000000E+00
  5.2000001E-02  0.0000000E+00
  5.2499998E-02  0.0000000E+00
  5.2999999E-02  0.0000000E+00
  5.3500000E-02  0.0000000E+00
  5.4000001E-02  0.0000000E+00
  5.4499999E-02  0.0000000E+00
  5.5000000E-02  0.0000000E+00
  5.5500001E-02  0.0000000E+00
  5.6000002E-02  0.0000000E+00
  5.6499999E-02  0.0000000E+00
  5.7000000E-02  0.0000000E+00
  5.7500001E-02  0.0000000E+00
  5.7999998E-02  0.0000000E+00
  5.8499999E-02  0.0000000E+00
  5.9000000E-02  0.0000000E+00
  5.9500001E-02  0.0000000E+00
  5.9999999E-02  0.0000000E+00
  6.0500000E-02  0.0000000E+00
  6.1000001E-02  0.0000000E+00
  6.1500002E-02  0.0000000E+00
  6.1999999E-02  0.0000000E+00
  6.2500000E-02  0.0000000E+00
  6.3000001E-02  0.0000000E+00
  6.3500002E-02  0.0000000E+00
  6.4000003E-02  0.0000000E+00
  6.4499997E-02  0.0000000E+00
  6.4999998E-02  0.0000000E+00
  6.5499999E-02  0.0000000E+00
  6.6000000E-02  0.0000000E+00
  6.6500001E-02  0.0000000E+00
  6.7000002E-02  0.0000000E+00
  6.7500003E-02  0.0000000E+00
  6.8000004E-02  0.0000000E+00
  6.8499997E-02  0.0000000E+00
  6.8999998E-02  0.0000000E+00
  6.9499999E-02  0.0000000E+00
  7.0000000E-02  0.0000000E+00
  7.0500001E-02  0.0000000E+00
  7.1000002E-02  0.0000000E+00
  7.1500003E-02  0.0000000E+00
  7.1999997E-02  0.0000000E+00
  7.2499998E-02  0.0000000E+00
  7.2999999E-02  0.0000000E+00
  7.3500000E-02  0.0000000E+00
  7.4000001E-02  0.0000000E+00
  7.4500002E-02  0.0000000E+00
  7.5000003E-02  0.0000000E+00
  7.5499997E-02  0.0000000E+00
  7.5999998E-02  0.0000000E+00
  7.6499999E-02  0.0000000E+00
  7.7000000E-02  0.0000000E+00
  7.7500001E-02  0.0000000E+00
  7.8000002E-02  0.0000000E+00
  7.8500003E-02  0.0000000E+00
  7.9000004E-02  0.0000000E+00
  7.9499997E-02  0.0000000E+00
  7.9999998E-02  0.0000000E+00
  8.0499999E-02  0.0000000E+00
  8.1000000E-02  0.0000000E+00
  8.1500001E-02  0.0000000E+00
  8.2000002E-02  0.0000000E+00
  8.2500003E-02  0.0000000E+00
  8.2999997E-02  0.0000000E+00
  8.3499998E-02  0.0000000E+00
  8.3999999E-02  0.0000000E+00
  8.4500000E-02  0.0000000E+00
  8.5000001E-02  0.0000000E+00
  8.5500002E-02  0.0000000E+00
  8.6000003E-02  0.0000000E+00
  8.6499996E-02  0.0000000E+00
  8.6999997E-02  0.0000000E+00
  8.7499999E-02  0.0000000E+00
  8.8000000E-02  0.0000000E+00
  8.8500001E-02  0.0000000E+00
  8.9000002E-02  0.0000000E+00
  8.9500003E-02  0.0000000E+00
  9.0000004E-02  0.0000000E+00
  9.0499997E-02  0.0000000E+00
  9.0999998E-02  0.0000000E+00
  9.1499999E-02  0.0000000E+00
  9.2000000E-02  0.0000000E+00
  9.2500001E-02  0.0000000E+00
  9.3000002E-02  0.0000000E+00
  9.3500003E-02  0.0000000E+00
  9.3999997E-02  0.0000000E+00
  9.4499998E-02  0.0000000E+00
  9.4999999E-02  0.0000000E+00
  9.5500000E-02  0.0000000E+00
  9.6000001E-02  0.0000000E+00
  9.6500002E-02  0.0000000E+00
  9.7000003E-02  0.0000000E+00
  9.7499996E-02  0.0000000E+00
  9.7999997E-02  0.0000000E+00
  9.8499998E-02  0.0000000E+00
  9.8999999E-02  0.0000000E+00
  9.9500000E-02  0.0000000E+00
  0.1000000      0.0000000E+00
  0.1005000      0.0000000E+00
  0.1010000      0.0000000E+00
  0.1015000      0.0000000E+00
  0.1020000      0.0000000E+00
  0.1025000      0.0000000E+00
  0.1030000      0.0000000E+00
  0.1035000      0.0000000E+00
  0.1040000      0.0000000E+00
  0.1045000      0.0000000E+00
  0.1050000      0.0000000E+00
  0.1055000      0.0000000E+00
  0.1060000      0.0000000E+00
  0.1065000      0.0000000E+00
  0.1070000      0.0000000E+00
  0.1075000      0.0000000E+00
  0.1080000      0.0000000E+00
  0.1085000      0.0000000E+00
  0.1090000      0.0000000E+00
  0.1095000      0.0000000E+00
  0.1100000      0.0000000E+00
  0.1105000      0.0000000E+00
  0.1110000      0.0000000E+00
  0.1115000      0.0000000E+00
  0.1120000      0.0000000E+00
  0.1125000      0.0000000E+00
  0.1130000      0.0000000E+00
  0.1135000      0.0000000E+00
  0.1140000      0.0000000E+00
  0.1145000      0.0000000E+00
  0.1150000      0.0000000E+00
  0.1155000      0.0000000E+00
  0.1160000      0.0000000E+00
  0.1165000      0.0000000E+00
  0.1170000      0.0000000E+00
  0.1175000      0.0000000E+00
  0.1180000      0.0000000E+00
  0.1185000      0.0000000E+00
  0.1190000      0.0000000E+00
  0.1195000      0.0000000E+00
  0.1200000      0.0000000E+00
  0.1205000      0.0000000E+00
  0.1210000      0.0000000E+00
  0.1215000      0.0000000E+00
  0.1220000      0.0000000E+00
  0.1225000      0.0000000E+00
  0.1230000      0.0000000E+00
  0.1235000      0.0000000E+00
  0.1240000      0.0000000E+00
  0.1245000      0.0000000E+00
  0.1250000      0.0000000E+00
  0.1255000      0.0000000E+00
  0.1260000      0.0000000E+00
  0.1265000      0.0000000E+00
  0.1270000      0.0000000E+00
  0.1275000      0.0000000E+00
  0.1280000      0.0000000E+00
  0.1285000      0.0000000E+00
  0.1290000      0.0000000E+00
  0.1295000      0.0000000E+00
  0.1300000      0.0000000E+00
  0.1305000      0.0000000E+00
  0.1310000      0.0000000E+00
  0.1315000      0.0000000E+00
  0.1320000      0.0000000E+00
  0.1325000      0.0000000E+00
  0.1330000      0.0000000E+00
  0.1335000      0.0000000E+00
  0.1340000      0.0000000E+00
  0.1345000      0.0000000E+00
  0.1350000      0.0000000E+00
  0.1355000      0.0000000E+00
  0.1360000      0.0000000E+00
  0.1365000      0.0000000E+00
  0.1370000      0.0000000E+00
  0.1375000      0.0000000E+00
  0.1380000      0.0000000E+00
  0.1385000      0.0000000E+00
  0.1390000      0.0000000E+00
  0.1395000      0.0000000E+00
  0.1400000      0.0000000E+00
  0.1405000      0.0000000E+00
  0.1410000      0.0000000E+00
  0.1415000      0.0000000E+00
  0.1420000      0.0000000E+00
  0.1425000      0.0000000E+00
  0.1430000      0.0000000E+00
  0.1435000      0.0000000E+00
  0.1440000      0.0000000E+00
  0.1445000      0.0000000E+00
  0.1450000      0.0000000E+00
  0.1455000      0.0000000E+00
  0.1460000      0.0000000E+00
  0.1465000      0.0000000E+00
  0.1470000      0.0000000E+00
  0.1475000      0.0000000E+00
  0.1480000      0.0000000E+00
  0.1485000      0.0000000E+00
  0.1490000      0.0000000E+00
  0.1495000      0.0000000E+00
  0.1500000      0.0000000E+00
  0.1505000      0.0000000E+00
  0.1510000      0.0000000E+00
  0.1515000      0.0000000E+00
  0.1520000      0.0000000E+00
  0.1525000      0.0000000E+00
  0.1530000      0.0000000E+00
  0.1535000      0.0000000E+00
  0.1540000      0.0000000E+00
  0.1545000      0.0000000E+00
  0.1550000      0.0000000E+00
  0.1555000      0.0000000E+00
  0.1560000      0.0000000E+00
  0.1565000      0.0000000E+00
  0.1570000      0.0000000E+00
  0.1575000      0.0000000E+00
  0.1580000      0.0000000E+00
  0.1585000      0.0000000E+00
  0.1590000      0.0000000E+00
  0.1595000      0.0000000E+00
  0.1600000      0.0000000E+00
  0.1605000      0.0000000E+00
  0.1610000      0.0000000E+00
  0.1615000      0.0000000E+00
  0.1620000      0.0000000E+00
  0.1625000      0.0000000E+00
  0.1630000      0.0000000E+00
  0.1635000      0.0000000E+00
  0.1640000      0.0000000E+00
  0.1645000      0.0000000E+00
  0.1650000      0.0000000E+00
  0.1655000      0.0000000E+00
  0.1660000      0.0000000E+00
  0.1665000      0.0000000E+00
  0.1670000      0.0000000E+00
  0.1675000      0.0000000E+00
  0.1680000      0.0000000E+00
  0.1685000      0.0000000E+00
  0.1690000      0.0000000E+00
  0.1695000      0.0000000E+00
  0.1700000      0.0000000E+00
  0.1705000      0.0000000E+00
  0.1710000      0.0000000E+00
  0.1715000      0.0000000E+00
  0.1720000      0.0000000E+00
  0.1725000      0.0000000E+00
  0.1730000      0.0000000E+00
  0.1735000      0.0000000E+00
  0.1740000      0.0000000E+00
  0.1745000      0.0000000E+00
  0.1750000      0.0000000E+00
  0.1755000      0.0000000E+00
  0.1760000      0.0000000E+00
  0.1765000      0.0000000E+00
  0.1770000      0.0000000E+00
  0.1775000      0.0000000E+00
  0.1780000      0.0000000E+00
  0.1785000      0.0000000E+00
  0.1790000      0.0000000E+00
  0.1795000      0.0000000E+00
  0.1800000      0.0000000E+00
  0.1805000      0.0000000E+00
  0.1810000      0.0000000E+00
  0.1815000      0.0000000E+00
  0.1820000      0.0000000E+00
  0.1825000      0.0000000E+00
  0.1830000      0.0000000E+00
  0.1835000      0.0000000E+00
  0.1840000      0.0000000E+00
  0.1845000      0.0000000E+00
  0.1850000      0.0000000E+00
  0.1855000      0.0000000E+00
  0.1860000      0.0000000E+00
  0.1865000      0.0000000E+00
  0.1870000      0.0000000E+00
  0.1875000      0.0000000E+00
  0.1880000      0.0000000E+00
  0.1885000      0.0000000E+00
  0.1890000      0.0000000E+00
  0.1895000      0.0000000E+00
  0.1900000      0.0000000E+00
  0.1905000      0.0000000E+00
  0.1910000      0.0000000E+00
  0.1915000      0.0000000E+00
  0.1920000      0.0000000E+00
  0.1925000      0.0000000E+00
  0.1930000      0.0000000E+00
  0.1935000      0.0000000E+00
  0.1940000      0.0000000E+00
  0.1945000      0.0000000E+00
  0.1950000      0.0000000E+00
  0.1955000      0.0000000E+00
  0.1960000      0.0000000E+00
  0.1965000      0.0000000E+00
  0.1970000      0.0000000E+00
  0.1975000      0.0000000E+00
  0.1980000      0.0000000E+00
  0.1985000      0.0000000E+00
  0.1990000      0.0000000E+00
  0.1995000      0.0000000E+00
  0.2000000      0.0000000E+00
  0.2005000      0.0000000E+00
  0.2010000      0.0000000E+00
  0.2015000      0.0000000E+00
  0.2020000      0.0000000E+00
  0.2025000      0.0000000E+00
  0.2030000      0.0000000E+00
  0.2035000      0.0000000E+00
  0.2040000      0.0000000E+00
  0.2045000      0.0000000E+00
  0.2050000      0.0000000E+00
  0.2055000      0.0000000E+00
  0.2060000      0.0000000E+00
  0.2065000      0.0000000E+00
  0.2070000      0.0000000E+00
  0.2075000      0.0000000E+00
  0.2080000      0.0000000E+00
  0.2085000      0.0000000E+00
  0.2090000      0.0000000E+00
  0.2095000      0.0000000E+00
  0.2100000      0.0000000E+00
  0.2105000      0.0000000E+00
  0.2110000      0.0000000E+00
  0.2115000      0.0000000E+00
  0.2120000      0.0000000E+00
  0.2125000      0.0000000E+00
  0.2130000      0.0000000E+00
  0.2135000      0.0000000E+00
  0.2140000      0.0000000E+00
  0.2145000      0.0000000E+00
  0.2150000      0.0000000E+00
  0.2155000      0.0000000E+00
  0.2160000      0.0000000E+00
  0.2165000      0.0000000E+00
  0.2170000      0.0000000E+00
  0.2175000      0.0000000E+00
  0.2180000      0.0000000E+00
  0.2185000      0.0000000E+00
  0.2190000      0.0000000E+00
  0.2195000      0.0000000E+00
  0.2200000      0.0000000E+00
  0.2205000      0.0000000E+00
  0.2210000      0.0000000E+00
  0.2215000      0.0000000E+00
  0.2220000      0.0000000E+00
  0.2225000      0.0000000E+00
  0.2230000      0.0000000E+00
  0.2235000      0.0000000E+00
  0.2240000      0.0000000E+00
  0.2245000      0.0000000E+00
  0.2250000      0.0000000E+00
  0.2255000      0.0000000E+00
  0.2260000      0.0000000E+00
  0.2265000      0.0000000E+00
  0.2270000      0.0000000E+00
  0.2275000      0.0000000E+00
  0.2280000      0.0000000E+00
  0.2285000      0.0000000E+00
  0.2290000      0.0000000E+00
  0.2295000      0.0000000E+00
  0.2300000      0.0000000E+00
  0.2305000      0.0000000E+00
  0.2310000      0.0000000E+00
  0.2315000      0.0000000E+00
  0.2320000      0.0000000E+00
  0.2325000      0.0000000E+00
  0.2330000      0.0000000E+00
  0.2335000      0.0000000E+00
  0.2340000      0.0000000E+00
  0.2345000      0.0000000E+00
  0.2350000      0.0000000E+00
  0.2355000      0.0000000E+00
  0.2360000      0.0000000E+00
  0.2365000      0.0000000E+00
  0.2370000      0.0000000E+00
  0.2375000      0.0000000E+00
  0.2380000      0.0000000E+00
  0.2385000      0.0000000E+00
  0.2390000      0.0000000E+00
  0.2395000      0.0000000E+00
  0.2400000      0.0000000E+00
  0.2405000      0.0000000E+00
  0.2410000      0.0000000E+00
  0.2415000      0.0000000E+00
  0.2420000      0.0000000E+00
  0.2425000      0.0000000E+00
  0.2430000      0.0000000E+00
  0.2435000      0.0000000E+00
  0.2440000      0.0000000E+00
  0.2445000      0.0000000E+00
  0.2450000      0.0000000E+00
  0.2455000      0.0000000E+00
  0.2460000      0.0000000E+00
  0.2465000      0.0000000E+00
  0.2470000      0.0000000E+00
  0.2475000      0.0000000E+00
  0.2480000      0.0000000E+00
  0.2485000      0.0000000E+00
  0.2490000      0.0000000E+00
  0.2495000      0.0000000E+00
  0.2500000      0.0000000E+00
  0.2505000      0.0000000E+00
  0.2510000      0.0000000E+00
  0.2515000      0.0000000E+00
  0.2520000      0.0000000E+00
  0.2525000      0.0000000E+00
  0.2530000      0.0000000E+00
  0.2535000      0.0000000E+00
  0.2540000      0.0000000E+00
  0.2545000      0.0000000E+00
  0.2550000      0.0000000E+00
  0.2555000      0.0000000E+00
  0.2560000      0.0000000E+00
  0.2565000      0.0000000E+00
  0.2570000      0.0000000E+00
  0.2575000      0.0000000E+00
  0.2580000      0.0000000E+00
  0.2585000      0.0000000E+00
  0.2590000      0.0000000E+00
  0.2595000      0.0000000E+00
  0.2600000      0.0000000E+00
  0.2605000      0.0000000E+00
  0.2610000      0.0000000E+00
  0.2615000      0.0000000E+00
  0.2620000      0.0000000E+00
  0.2625000      0.0000000E+00
  0.2630000      0.0000000E+00
  0.2635000      0.0000000E+00
  0.2640000      0.0000000E+00
  0.2645000      0.0000000E+00
  0.2650000      0.0000000E+00
  0.2655000      0.0000000E+00
  0.2660000      0.0000000E+00
  0.2665000      0.0000000E+00
  0.2670000      0.0000000E+00
  0.2675000      0.0000000E+00
  0.2680000      0.0000000E+00
  0.2685000      0.0000000E+00
  0.2690000      0.0000000E+00
  0.2695000      0.0000000E+00
  0.2700000      0.0000000E+00
  0.2705000      0.0000000E+00
  0.2710000      0.0000000E+00
  0.2715000      0.0000000E+00
  0.2720000      0.0000000E+00
  0.2725000      0.0000000E+00
  0.2730000      0.0000000E+00
  0.2735000      0.0000000E+00
  0.2740000      0.0000000E+00
  0.2745000      0.0000000E+00
  0.2750000      0.0000000E+00
  0.2755000      0.0000000E+00
  0.2760000      0.0000000E+00
  0.2765000      0.0000000E+00
  0.2770000      0.0000000E+00
  0.2775000      0.0000000E+00
  0.2780000      0.0000000E+00
  0.2785000      0.0000000E+00
  0.2790000      0.0000000E+00
  0.2795000      0.0000000E+00
  0.2800000      0.0000000E+00
  0.2805000      0.0000000E+00
  0.2810000      0.0000000E+00
  0.2815000      0.0000000E+00
  0.2820000      0.0000000E+00
  0.2825000      0.0000000E+00
  0.2830000      0.0000000E+00
  0.2835000      0.0000000E+00
  0.2840000      0.0000000E+00
  0.2845000      0.0000000E+00
  0.2850000      0.0000000E+00
  0.2855000      0.0000000E+00
  0.2860000      0.0000000E+00
  0.2865000      0.0000000E+00
  0.2870000      0.0000000E+00
  0.2875000      0.0000000E+00
  0.2880000      0.0000000E+00
  0.2885000      0.0000000E+00
  0.2890000      0.0000000E+00
  0.2895000      0.0000000E+00
  0.2900000      0.0000000E+00
  0.2905000      0.0000000E+00
  0.2910000      0.0000000E+00
  0.2915000      0.0000000E+00
  0.2920000      0.0000000E+00
  0.2925000      0.0000000E+00
  0.2930000      0.0000000E+00
  0.2935000      0.0000000E+00
  0.2940000      0.0000000E+00
  0.2945000      0.0000000E+00
  0.2950000      0.0000000E+00
  0.2955000      0.0000000E+00
  0.2960000      0.0000000E+00
  0.2965000      0.0000000E+00
  0.2970000      0.0000000E+00
  0.2975000      0.0000000E+00
  0.2980000      0.0000000E+00
  0.2985000      0.0000000E+00
  0.2990000      0.0000000E+00
  0.2995000      0.0000000E+00
  0.3000000      0.0000000E+00
  0.3005000      0.0000000E+00
  0.3010000      0.0000000E+00
  0.3015000      0.0000000E+00
  0.3020000      0.0000000E+00
  0.3025000      0.0000000E+00
  0.3030000      0.0000000E+00
  0.3035000      0.0000000E+00
  0.3040000      0.0000000E+00
  0.3045000      0.0000000E+00
  0.3050000      0.0000000E+00
  0.3055000      0.0000000E+00
  0.3060000      0.0000000E+00
  0.3065000      0.0000000E+00
  0.3070000      0.0000000E+00
  0.3075000      0.0000000E+00
  0.3080000      0.0000000E+00
  0.3085000      0.0000000E+00
  0.3090000      0.0000000E+00
  0.3095000      0.0000000E+00
  0.3100000      0.0000000E+00
  0.3105000      0.0000000E+00
  0.3110000      0.0000000E+00
  0.3115000      0.0000000E+00
  0.3120000      0.0000000E+00
  0.3125000      0.0000000E+00
  0.3130000      0.0000000E+00
  0.3135000      0.0000000E+00
  0.3140000      0.0000000E+00
  0.3145000      0.0000000E+00
  0.3150000      0.0000000E+00
  0.3155000      0.0000000E+00
  0.3160000      0.0000000E+00
  0.3165000      0.0000000E+00
  0.3170000      0.0000000E+00
  0.3175000      0.0000000E+00
  0.3180000      0.0000000E+00
  0.3185000      0.0000000E+00
  0.3190000      0.0000000E+00
  0.3195000      0.0000000E+00
  0.3200000      0.0000000E+00
  0.3205000      0.0000000E+00
  0.3210000      0.0000000E+00
  0.3215000      0.0000000E+00
  0.3220000      0.0000000E+00
  0.3225000      0.0000000E+00
  0.3230000      0.0000000E+00
  0.3235000      0.0000000E+00
  0.3240000      0.0000000E+00
  0.3245000      0.0000000E+00
  0.3250000      0.0000000E+00
  0.3255000      0.0000000E+00
  0.3260000      0.0000000E+00
  0.3265000      0.0000000E+00
  0.3270000      0.0000000E+00
  0.3275000      0.0000000E+00
  0.3280000      0.0000000E+00
  0.3285000      0.0000000E+00
  0.3290000      0.0000000E+00
  0.3295000      0.0000000E+00
  0.3300000      0.0000000E+00
  0.3305000      0.0000000E+00
  0.3310000      0.0000000E+00
  0.3315000      0.0000000E+00
  0.3320000      0.0000000E+00
  0.3325000      0.0000000E+00
  0.3330000      0.0000000E+00
  0.3335000      0.0000000E+00
  0.3340000      0.0000000E+00
  0.3345000      0.0000000E+00
  0.3350000      0.0000000E+00
  0.3355000      0.0000000E+00
  0.3360000      0.0000000E+00
  0.3365000      0.0000000E+00
  0.3370000      0.0000000E+00
  0.3375000      0.0000000E+00
  0.3380000      0.0000000E+00
  0.3385000      0.0000000E+00
  0.3390000      0.0000000E+00
  0.3395000      0.0000000E+00
  0.3400000      0.0000000E+00
  0.3405000      0.0000000E+00
  0.3410000      0.0000000E+00
  0.3415000      0.0000000E+00
  0.3420000      0.0000000E+00
  0.3425000      0.0000000E+00
  0.3430000      0.0000000E+00
  0.3435000      0.0000000E+00
  0.3440000      0.0000000E+00
  0.3445000      0.0000000E+00
  0.3450000      0.0000000E+00
  0.3455000      0.0000000E+00
  0.3460000      0.0000000E+00
  0.3465000      0.0000000E+00
  0.3470000      0.0000000E+00
  0.3475000      0.0000000E+00
  0.3480000      0.0000000E+00
  0.3485000      0.0000000E+00
  0.3490000      0.0000000E+00
  0.3495000      0.0000000E+00
  0.3500000      0.0000000E+00
  0.3505000      0.0000000E+00
  0.3510000      0.0000000E+00
  0.3515000      0.0000000E+00
  0.3520000      0.0000000E+00
  0.3525000      2.8548299E-37
  0.3530000      4.0569644E-37
  0.3535000      4.8265217E-37
  0.3540000      3.5578860E-37
  0.3545000      0.0000000E+00
  0.3550000     -2.8404712E-37
  0.3555000     -6.6875608E-37
  0.3560000     -4.6128019E-36
  0.3565000     -6.0513085E-36
  0.3570000     -7.2524192E-36
  0.3575000     -7.6667795E-36
  0.3580000     -6.5040388E-36
  0.3585000     -3.7811206E-36
  0.3590000      2.3585741E-36
  0.3595000      8.8585402E-36
  0.3600000      1.1875844E-35
  0.3605000      1.3791975E-35
  0.3610000      1.3905566E-35
  0.3615000      1.2818007E-35
  0.3620000      1.3132120E-35
  0.3625000      1.8859501E-35
  0.3630000      3.0099262E-35
  0.3635000      2.9947727E-35
  0.3640000      2.8259180E-35
  0.3645000      1.9916869E-35
  0.3650000      4.7234518E-36
  0.3655000     -1.2949686E-35
  0.3660000      1.7893263E-35
  0.3665000      3.0759471E-36
  0.3670000     -4.4122921E-35
  0.3675000     -3.5344271E-35
  0.3680000     -1.9507083E-35
  0.3685000     -3.8557483E-35
  0.3690000     -5.9361145E-35
  0.3695000     -3.7858190E-35
  0.3700000      5.5005754E-35
  0.3705000      1.0676895E-35
  0.3710000     -6.1603796E-35
  0.3715000     -1.1455392E-34
  0.3720000     -2.5690240E-35
  0.3725000     -1.2694147E-34
  0.3730000     -1.6773631E-34
  0.3735000     -1.3058111E-34
  0.3740000     -8.7967603E-35
  0.3745000     -1.3854063E-34
  0.3750000     -1.6117311E-34
  0.3755000     -5.3600550E-34
  0.3760000     -4.7622582E-34
  0.3765000     -2.4588883E-34
  0.3770000     -2.6726154E-34
  0.3775000     -1.6172921E-34
  0.3780000      2.8640268E-34
  0.3785000     -7.9939870E-34
  0.3790000     -8.6263506E-34
  0.3795000      6.1070357E-34
  0.3800000      3.1942647E-34
  0.3805000      2.3084471E-34
  0.3810000      9.8995028E-34
  0.3815000     -8.9646524E-34
  0.3820000      8.2575310E-34
  0.3825000      1.3981268E-33
  0.3830000      4.5467180E-34
  0.3835000      6.7159482E-34
  0.3840000      6.1082718E-34
  0.3845000      1.1345856E-33
  0.3850000      1.6942167E-33
  0.3855000      1.7324421E-33
  0.3860000      2.0639697E-33
  0.3865000      2.0673173E-33
  0.3870000      1.7348157E-33
  0.3875000      1.1481683E-33
  0.3880000      8.4559232E-34
  0.3885000      1.4474608E-33
  0.3890000      4.1879337E-34
  0.3895000      7.9685421E-34
  0.3900000      9.8228395E-35
  0.3905000     -1.6448976E-34
  0.3910000     -6.7321227E-34
  0.3915000     -1.3820792E-33
  0.3920000     -1.8812432E-33
  0.3925000     -1.9192096E-33
  0.3930000     -1.6770374E-33
  0.3935000     -1.9317193E-33
  0.3940000     -2.7515891E-33
  0.3945000     -1.8881494E-33
  0.3950000     -2.4629362E-33
  0.3955000     -2.1058649E-33
  0.3960000     -4.0858942E-33
  0.3965000     -7.1300021E-33
  0.3970000     -9.5371038E-33
  0.3975000     -1.1315614E-32
  0.3980000     -1.2717037E-32
  0.3985000     -1.2590780E-32
  0.3990000     -1.2296870E-32
  0.3995000     -9.5265567E-33
  0.4000000     -8.5094734E-33
  0.4005000     -7.7254914E-33
  0.4010000     -6.7835046E-33
  0.4015000     -5.8966378E-33
  0.4020000     -5.4160737E-33
  0.4025000     -5.6249737E-33
  0.4030000     -6.0934093E-33
  0.4035000     -3.5925425E-33
  0.4040000      1.4236671E-33
  0.4045000      7.9432194E-33
  0.4050000      1.4977172E-32
  0.4055000      2.2188900E-32
  0.4060000      3.1238198E-32
  0.4065000      3.9824952E-32
  0.4070000      4.7992390E-32
  0.4075000      5.5058028E-32
  0.4080000      6.1307120E-32
  0.4085000      6.5314527E-32
  0.4090000      6.7316694E-32
  0.4095000      6.7006434E-32
  0.4100000      6.4130881E-32
  0.4105000      5.9326054E-32
  0.4110000      5.0835011E-32
  0.4115000      4.0223795E-32
  0.4120000      2.6862705E-32
  0.4125000      1.1159199E-32
  0.4130000     -6.5541921E-33
  0.4135000     -2.6017948E-32
  0.4140000     -4.6182273E-32
  0.4145000     -6.7782266E-32
  0.4150000     -8.9507177E-32
  0.4155000     -1.1011195E-31
  0.4160000     -1.2928676E-31
  0.4165000     -1.4607157E-31
  0.4170000     -1.6018122E-31
  0.4175000     -1.6914891E-31
  0.4180000     -1.7481318E-31
  0.4185000     -1.7526641E-31
  0.4190000     -1.7018814E-31
  0.4195000     -1.5934194E-31
  0.4200000     -1.4269396E-31
  0.4205000     -1.2029377E-31
  0.4210000     -9.4304011E-32
  0.4215000     -6.0460182E-32
  0.4220000     -2.1666333E-32
  0.4225000      2.0815150E-32
  0.4230000      6.7148046E-32
  0.4235000      1.1580459E-31
  0.4240000      1.6493562E-31
  0.4245000      2.1254703E-31
  0.4250000      2.5841130E-31
  0.4255000      3.0067944E-31
  0.4260000      3.3756923E-31
  0.4265000      3.6802255E-31
  0.4270000      3.9012861E-31
  0.4275000      4.0259464E-31
  0.4280000      4.0409819E-31
  0.4285000      3.9362660E-31
  0.4290000      3.7001069E-31
  0.4295000      3.3261092E-31
  0.4300000      2.8105821E-31
  0.4305000      2.1521599E-31
  0.4310000      1.3558950E-31
  0.4315000      4.3025873E-32
  0.4320000     -6.1278233E-32
  0.4325000     -1.7561137E-31
  0.4330000     -2.9664869E-31
  0.4335000     -4.2204013E-31
  0.4340000     -5.4845331E-31
  0.4345000     -6.7214443E-31
  0.4350000     -7.8897610E-31
  0.4355000     -8.9447578E-31
  0.4360000     -9.8408832E-31
  0.4365000     -1.0530039E-30
  0.4370000     -1.0965301E-30
  0.4375000     -1.1102007E-30
  0.4380000     -1.0899649E-30
  0.4385000     -1.0322423E-30
  0.4390000     -9.3444475E-31
  0.4395000     -7.9482743E-31
  0.4400000     -6.1279165E-31
  0.4405000     -3.8900442E-31
  0.4410000     -1.2548736E-31
  0.4415000      1.7431172E-31
  0.4420000      5.0547607E-31
  0.4425000      8.6165090E-31
  0.4430000      1.2348880E-30
  0.4435000      1.6161522E-30
  0.4440000      1.9948807E-30
  0.4445000      2.3594739E-30
  0.4450000      2.6973945E-30
  0.4455000      2.9954321E-30
  0.4460000      3.2400047E-30
  0.4465000      3.4175033E-30
  0.4470000      3.5147101E-30
  0.4475000      3.5192202E-30
  0.4480000      3.4198535E-30
  0.4485000      3.2071135E-30
  0.4490000      2.8735339E-30
  0.4495000      2.4143462E-30
  0.4500000      1.8277713E-30
  0.4505000      1.1151441E-30
  0.4510000      2.8141960E-31
  0.4515000     -6.6452266E-31
  0.4520000     -1.7096747E-30
  0.4525000     -2.8368643E-30
  0.4530000     -4.0246910E-30
  0.4535000     -5.2475433E-30
  0.4540000     -6.4758665E-30
  0.4545000     -7.6764829E-30
  0.4550000     -8.8130298E-30
  0.4555000     -9.8467645E-30
  0.4560000     -1.0737113E-29
  0.4565000     -1.1442655E-29
  0.4570000     -1.1922217E-29
  0.4575000     -1.2135664E-29
  0.4580000     -1.2045298E-29
  0.4585000     -1.1617142E-29
  0.4590000     -1.0822099E-29
  0.4595000     -9.6372963E-30
  0.4600000     -8.0474479E-30
  0.4605000     -6.0461020E-30
  0.4610000     -3.6367745E-30
  0.4615000     -8.3399970E-31
  0.4620000      2.3356467E-30
  0.4625000      5.8330738E-30
  0.4630000      9.6060744E-30
  0.4635000      1.3589294E-29
  0.4640000      1.7704293E-29
  0.4645000      2.1860385E-29
  0.4650000      2.5955186E-29
  0.4655000      2.9876094E-29
  0.4660000      3.3502090E-29
  0.4665000      3.6705703E-29
  0.4670000      3.9355572E-29
  0.4675000      4.1319319E-29
  0.4680000      4.2466740E-29
  0.4685000      4.2673347E-29
  0.4690000      4.1824244E-29
  0.4695000      3.9817798E-29
  0.4700000      3.6570012E-29
  0.4705000      3.2018239E-29
  0.4710000      2.6125405E-29
  0.4715000      1.8883529E-29
  0.4720000      1.0317134E-29
  0.4725000      4.8643621E-31
  0.4730000     -1.0510548E-29
  0.4735000     -2.2536087E-29
  0.4740000     -3.5411719E-29
  0.4745000     -4.8918311E-29
  0.4750000     -6.2796878E-29
  0.4755000     -7.6750397E-29
  0.4760000     -9.0447177E-29
  0.4765000     -1.0352504E-28
  0.4770000     -1.1559655E-28
  0.4775000     -1.2625619E-28
  0.4780000     -1.3508752E-28
  0.4785000     -1.4167291E-28
  0.4790000     -1.4560280E-28
  0.4795000     -1.4648670E-28
  0.4800000     -1.4396495E-28
  0.4805000     -1.3772006E-28
  0.4810000     -1.2748967E-28
  0.4815000     -1.1307786E-28
  0.4820000     -9.4367811E-29
  0.4825000     -7.1332647E-29
  0.4830000     -4.4045636E-29