  0.0000000E+00  0.0000000E+00
  5.0000002E-04  0.0000000E+00
  1.0000000E-03  0.0000000E+00
  1.5000000E-03  0.0000000E+00
  2.0000001E-03  0.0000000E+00
  2.4999999E-03  0.0000000E+00
  3.0000000E-03  0.0000000E+00
  3.5000001E-03  0.0000000E+00
  4.0000002E-03  0.0000000E+00
  4.4999998E-03  0.0000000E+00
  4.9999999E-03  0.0000000E+00
  5.5000000E-03  0.0000000E+00
  6.0000001E-03  0.0000000E+00
  6.5000001E-03  0.0000000E+00
  7.0000002E-03  0.0000000E+00
  7.4999998E-03  0.0000000E+00
  8.0000004E-03  0.0000000E+00
  8.5000005E-03  0.0000000E+00
  8.9999996E-03  0.0000000E+00
  9.4999997E-03  0.0000000E+00
  9.9999998E-03  0.0000000E+00
  1.0500000E-02  0.0000000E+00
  1.1000000E-02  0.0000000E+00
  1.1500000E-02  0.0000000E+00
  1.2000000E-02  0.0000000E+00
  1.2500000E-02  0.0000000E+00
  1.3000000E-02  0.0000000E+00
  1.3500000E-02  0.0000000E+00
  1.4000000E-02  0.0000000E+00
  1.4500000E-02  0.0000000E+00
  1.5000000E-02  0.0000000E+00
  1.5500000E-02  0.0000000E+00
  1.6000001E-02  0.0000000E+00
  1.6500000E-02  0.0000000E+00
  1.7000001E-02  0.0000000E+00
  1.7500000E-02  0.0000000E+00
  1.7999999E-02  0.0000000E+00
  1.8500000E-02  0.0000000E+00
  1.8999999E-02  0.0000000E+00
  1.9500000E-02  0.0000000E+00
  2.0000000E-02  0.0000000E+00
  2.0500001E-02  0.0000000E+00
  2.1000000E-02  0.0000000E+00
  2.1500001E-02  0.0000000E+00
  2.2000000E-02  0.0000000E+00
  2.2500001E-02  0.0000000E+00
  2.3000000E-02  0.0000000E+00
  2.3499999E-02  0.0000000E+00
  2.4000000E-02  0.0000000E+00
  2.4499999E-02  0.0000000E+00
  2.5000000E-02  0.0000000E+00
  2.5500000E-02  0.0000000E+00
  2.6000001E-02  0.0000000E+00
  2.6500000E-02  0.0000000E+00
  2.7000001E-02  0.0000000E+00
  2.7500000E-02  0.0000000E+00
  2.8000001E-02  0.0000000E+00
  2.8500000E-02  0.0000000E+00
  2.8999999E-02  0.0000000E+00
  2.9500000E-02  0.0000000E+00
  2.9999999E-02  0.0000000E+00
  3.0500000E-02  0.0000000E+00
  3.0999999E-02  0.0000000E+00
  3.1500001E-02  0.0000000E+00
  3.2000002E-02  0.0000000E+00
  3.2499999E-02  0.0000000E+00
  3.3000000E-02  0.0000000E+00
  3.3500001E-02  0.0000000E+00
  3.4000002E-02  0.0000000E+00
  3.4499999E-02  0.0000000E+00
  3.5000000E-02  0.0000000E+00
  3.5500001E-02  0.0000000E+00
  3.5999998E-02  0.0000000E+00
  3.6499999E-02  0.0000000E+00
  3.7000000E-02  0.0000000E+00
  3.7500001E-02  0.0000000E+00
  3.7999999E-02  0.0000000E+00
  3.8500000E-02  0.0000000E+00
  3.9000001E-02  0.0000000E+00
  3.9500002E-02  0.0000000E+00
  3.9999999E-02  0.0000000E+00
  4.0500000E-02  0.0000000E+00
  4.1000001E-02  0.0000000E+00
  4.1499998E-02  0.0000000E+00
  4.1999999E-02  0.0000000E+00
  4.2500000E-02  0.0000000E+00
  4.3000001E-02  0.0000000E+00
  4.3499999E-02  0.0000000E+00
  4.4000000E-02  0.0000000E+00
  4.4500001E-02  0.0000000E+00
  4.5000002E-02  0.0000000E+00
  4.5499999E-02  0.0000000E+00
  4.6000000E-02  0.0000000E+00
  4.6500001E-02  0.0000000E+00
  4.6999998E-02  0.0000000E+00
  4.7499999E-02  0.0000000E+00
  4.8000000E-02  0.0000000E+00
  4.8500001E-02  0.0000000E+00
  4.8999999E-02  0.0000000E+00
  4.9500000E-02  0.0000000E+00
  5.0000001E-02  0.0000000E+00
  5.0500002E-02  0.0000000E+00
  5.0999999E-02  0.0000000E+00
  5.1500000E-02  0.0000000E+00
  5.2000001E-02  0.0000000E+00
  5.2499998E-02  0.0000000E+00
  5.2999999E-02  0.0000000E+00
  5.3500000E-02  0.0000000E+00
  5.4000001E-02  0.0000000E+00
  5.4499999E-02  0.0000000E+00
  5.5000000E-02  0.0000000E+00
  5.5500001E-02  0.0000000E+00
  5.6000002E-02  0.0000000E+00
  5.6499999E-02  0.0000000E+00
  5.7000000E-02  0.0000000E+00
  5.7500001E-02  0.0000000E+00
  5.7999998E-02  0.0000000E+00
  5.8499999E-02  0.0000000E+00
  5.9000000E-02  0.0000000E+00
  5.9500001E-02  0.0000000E+00
  5.9999999E-02  0.0000000E+00
  6.0500000E-02  0.0000000E+00
  6.1000001E-02  0.0000000E+00
  6.1500002E-02  0.0000000E+00
  6.1999999E-02  0.0000000E+00
  6.2500000E-02  0.0000000E+00
  6.3000001E-02  0.0000000E+00
  6.3500002E-02  0.0000000E+00
  6.4000003E-02  0.0000000E+00
  6.4499997E-02  0.0000000E+00
  6.4999998E-02  0.0000000E+00
  6.5499999E-02  0.0000000E+00
  6.6000000E-02  0.0000000E+00
  6.6500001E-02  0.0000000E+00
  6.7000002E-02  0.0000000E+00
  6.7500003E-02  0.0000000E+00
  6.8000004E-02  0.0000000E+00
  6.8499997E-02  0.0000000E+00
  6.8999998E-02  0.0000000E+00
  6.9499999E-02  0.0000000E+00
  7.0000000E-02  0.0000000E+00
  7.0500001E-02  0.0000000E+00
  7.1000002E-02  0.0000000E+00
  7.1500003E-02  0.0000000E+00
  7.1999997E-02  0.0000000E+00
  7.2499998E-02  0.0000000E+00
  7.2999999E-02  0.0000000E+00
  7.3500000E-02  0.0000000E+00
  7.4000001E-02  0.0000000E+00
  7.4500002E-02  0.0000000E+00
  7.5000003E-02  0.0000000E+00
  7.5499997E-02  0.0000000E+00
  7.5999998E-02  0.0000000E+00
  7.6499999E-02  0.0000000E+00
  7.7000000E-02  0.0000000E+00
  7.7500001E-02  0.0000000E+00
  7.8000002E-02  0.0000000E+00
  7.8500003E-02  0.0000000E+00
  7.9000004E-02  0.0000000E+00
  7.9499997E-02  0.0000000E+00
  7.9999998E-02  0.0000000E+00
  8.0499999E-02  0.0000000E+00
  8.1000000E-02  0.0000000E+00
  8.1500001E-02  0.0000000E+00
  8.2000002E-02  0.0000000E+00
  8.2500003E-02  0.0000000E+00
  8.2999997E-02  0.0000000E+00
  8.3499998E-02  0.0000000E+00
  8.3999999E-02  0.0000000E+00
  8.4500000E-02  0.0000000E+00
  8.5000001E-02  0.0000000E+00
  8.5500002E-02  0.0000000E+00
  8.6000003E-02  0.0000000E+00
  8.6499996E-02  0.0000000E+00
  8.6999997E-02  0.0000000E+00
  8.7499999E-02  0.0000000E+00
  8.8000000E-02  0.0000000E+00
  8.8500001E-02  0.0000000E+00
  8.9000002E-02  0.0000000E+00
  8.9500003E-02  0.0000000E+00
  9.0000004E-02  0.0000000E+00
  9.0499997E-02  0.0000000E+00
  9.0999998E-02  0.0000000E+00
  9.1499999E-02  0.0000000E+00
  9.2000000E-02  0.0000000E+00
  9.2500001E-02  0.0000000E+00
  9.3000002E-02  0.0000000E+00
  9.3500003E-02  0.0000000E+00
  9.3999997E-02  0.0000000E+00
  9.4499998E-02  0.0000000E+00
  9.4999999E-02  0.0000000E+00
  9.5500000E-02  0.0000000E+00
  9.6000001E-02  0.0000000E+00
  9.6500002E-02  0.0000000E+00
  9.7000003E-02  0.0000000E+00
  9.7499996E-02  0.0000000E+00
  9.7999997E-02  0.0000000E+00
  9.8499998E-02  0.0000000E+00
  9.8999999E-02  0.0000000E+00
  9.9500000E-02  0.0000000E+00
  0.1000000      0.0000000E+00
  0.1005000      0.0000000E+00
  0.1010000      0.0000000E+00
  0.1015000      0.0000000E+00
  0.1020000      0.0000000E+00
  0.1025000      0.0000000E+00
  0.1030000      0.0000000E+00
  0.1035000      0.0000000E+00
  0.1040000      0.0000000E+00
  0.1045000      0.0000000E+00
  0.1050000      0.0000000E+00
  0.1055000      0.0000000E+00
  0.1060000      0.0000000E+00
  0.1065000      0.0000000E+00
  0.1070000      0.0000000E+00
  0.1075000      0.0000000E+00
  0.1080000      0.0000000E+00
  0.1085000      0.0000000E+00
  0.1090000      0.0000000E+00
  0.1095000      0.0000000E+00
  0.1100000      0.0000000E+00
  0.1105000      0.0000000E+00
  0.1110000      0.0000000E+00
  0.1115000      0.0000000E+00
  0.1120000      0.0000000E+00
  0.1125000      0.0000000E+00
  0.1130000      0.0000000E+00
  0.1135000      0.0000000E+00
  0.1140000      0.0000000E+00
  0.1145000      0.0000000E+00
  0.1150000      0.0000000E+00
  0.1155000      0.0000000E+00
  0.1160000      0.0000000E+00
  0.1165000      0.0000000E+00
  0.1170000      0.0000000E+00
  0.1175000      0.0000000E+00
  0.1180000      0.0000000E+00
  0.1185000      0.0000000E+00
  0.1190000      0.0000000E+00
  0.1195000      0.0000000E+00
  0.1200000      0.0000000E+00
  0.1205000      0.0000000E+00
  0.1210000      0.0000000E+00
  0.1215000      0.0000000E+00
  0.1220000      0.0000000E+00
  0.1225000      0.0000000E+00
  0.1230000      0.0000000E+00
  0.1235000      0.0000000E+00
  0.1240000      0.0000000E+00
  0.1245000      0.0000000E+00
  0.1250000      0.0000000E+00
  0.1255000      0.0000000E+00
  0.1260000      0.0000000E+00
  0.1265000      0.0000000E+00
  0.1270000      0.0000000E+00
  0.1275000      0.0000000E+00
  0.1280000      0.0000000E+00
  0.1285000      0.0000000E+00
  0.1290000      0.0000000E+00
  0.1295000      0.0000000E+00
  0.1300000      0.0000000E+00
  0.1305000      0.0000000E+00
  0.1310000      0.0000000E+00
  0.1315000      0.0000000E+00
  0.1320000      0.0000000E+00
  0.1325000      0.0000000E+00
  0.1330000      0.0000000E+00
  0.1335000      0.0000000E+00
  0.1340000      0.0000000E+00
  0.1345000      0.0000000E+00
  0.1350000      0.0000000E+00
  0.1355000      0.0000000E+00
  0.1360000      0.0000000E+00
  0.1365000      0.0000000E+00
  0.1370000      0.0000000E+00
  0.1375000      0.0000000E+00
  0.1380000      0.0000000E+00
  0.1385000      0.0000000E+00
  0.1390000      0.0000000E+00
  0.1395000      0.0000000E+00
  0.1400000      0.0000000E+00
  0.1405000      0.0000000E+00
  0.1410000      0.0000000E+00
  0.1415000      0.0000000E+00
  0.1420000      0.0000000E+00
  0.1425000      0.0000000E+00
  0.1430000      0.0000000E+00
  0.1435000      0.0000000E+00
  0.1440000      0.0000000E+00
  0.1445000      0.0000000E+00
  0.1450000      0.0000000E+00
  0.1455000      0.0000000E+00
  0.1460000      0.0000000E+00
  0.1465000      0.0000000E+00
  0.1470000      0.0000000E+00
  0.1475000      0.0000000E+00
  0.1480000      0.0000000E+00
  0.1485000      0.0000000E+00
  0.1490000      0.0000000E+00
  0.1495000      0.0000000E+00
  0.1500000      0.0000000E+00
  0.1505000      0.0000000E+00
  0.1510000      0.0000000E+00
  0.1515000      0.0000000E+00
  0.1520000      0.0000000E+00
  0.1525000      0.0000000E+00
  0.1530000      0.0000000E+00
  0.1535000      0.0000000E+00
  0.1540000      0.0000000E+00
  0.1545000      0.0000000E+00
  0.1550000      0.0000000E+00
  0.1555000      0.0000000E+00
  0.1560000      0.0000000E+00
  0.1565000      0.0000000E+00
  0.1570000      0.0000000E+00
  0.1575000      0.0000000E+00
  0.1580000      0.0000000E+00
  0.1585000      0.0000000E+00
  0.1590000      0.0000000E+00
  0.1595000      0.0000000E+00
  0.1600000      0.0000000E+00
  0.1605000      0.0000000E+00
  0.1610000      0.0000000E+00
  0.1615000      0.0000000E+00
  0.1620000      0.0000000E+00
  0.1625000      0.0000000E+00
  0.1630000      0.0000000E+00
  0.1635000      0.0000000E+00
  0.1640000      0.0000000E+00
  0.1645000      0.0000000E+00
  0.1650000      0.0000000E+00
  0.1655000      0.0000000E+00
  0.1660000      0.0000000E+00
  0.1665000      0.0000000E+00
  0.1670000      0.0000000E+00
  0.1675000      0.0000000E+00
  0.1680000      0.0000000E+00
  0.1685000      0.0000000E+00
  0.1690000      0.0000000E+00
  0.1695000      0.0000000E+00
  0.1700000      0.0000000E+00
  0.1705000      0.0000000E+00
  0.1710000      0.0000000E+00
  0.1715000      0.0000000E+00
  0.1720000      0.0000000E+00
  0.1725000      0.0000000E+00
  0.1730000      0.0000000E+00
  0.1735000      0.0000000E+00
  0.1740000      0.0000000E+00
  0.1745000      0.0000000E+00
  0.1750000      0.0000000E+00
  0.1755000      0.0000000E+00
  0.1760000      0.0000000E+00
  0.1765000      0.0000000E+00
  0.1770000      0.0000000E+00
  0.1775000      0.0000000E+00
  0.1780000      0.0000000E+00
  0.1785000      0.0000000E+00
  0.1790000      0.0000000E+00
  0.1795000      0.0000000E+00
  0.1800000      0.0000000E+00
  0.1805000      0.0000000E+00
  0.1810000      0.0000000E+00
  0.1815000      0.0000000E+00
  0.1820000      0.0000000E+00
  0.1825000      0.0000000E+00
  0.1830000      0.0000000E+00
  0.1835000      0.0000000E+00
  0.1840000      0.0000000E+00
  0.1845000      0.0000000E+00
  0.1850000      0.0000000E+00
  0.1855000      0.0000000E+00
  0.1860000      0.0000000E+00
  0.1865000      0.0000000E+00
  0.1870000      0.0000000E+00
  0.1875000      0.0000000E+00
  0.1880000      0.0000000E+00
  0.1885000      0.0000000E+00
  0.1890000      0.0000000E+00
  0.1895000      0.0000000E+00
  0.1900000      0.0000000E+00
  0.1905000      0.0000000E+00
  0.1910000      0.0000000E+00
  0.1915000      0.0000000E+00
  0.1920000      0.0000000E+00
  0.1925000      0.0000000E+00
  0.1930000      0.0000000E+00
  0.1935000      0.0000000E+00
  0.1940000      0.0000000E+00
  0.1945000      0.0000000E+00
  0.1950000      0.0000000E+00
  0.1955000      0.0000000E+00
  0.1960000      0.0000000E+00
  0.1965000      0.0000000E+00
  0.1970000      0.0000000E+00
  0.1975000      0.0000000E+00
  0.1980000      0.0000000E+00
  0.1985000      0.0000000E+00
  0.1990000      0.0000000E+00
  0.1995000      0.0000000E+00
  0.2000000      0.0000000E+00
  0.2005000      0.0000000E+00
  0.2010000      0.0000000E+00
  0.2015000      0.0000000E+00
  0.2020000      0.0000000E+00
  0.2025000      0.0000000E+00
  0.2030000      0.0000000E+00
  0.2035000      0.0000000E+00
  0.2040000      0.0000000E+00
  0.2045000      0.0000000E+00
  0.2050000      0.0000000E+00
  0.2055000      0.0000000E+00
  0.2060000      0.0000000E+00
  0.2065000      0.0000000E+00
  0.2070000      0.0000000E+00
  0.2075000      0.0000000E+00
  0.2080000      0.0000000E+00
  0.2085000      0.0000000E+00
  0.2090000      0.0000000E+00
  0.2095000      0.0000000E+00
  0.2100000      0.0000000E+00
  0.2105000      0.0000000E+00
  0.2110000      0.0000000E+00
  0.2115000      0.0000000E+00
  0.2120000      0.0000000E+00
  0.2125000      0.0000000E+00
  0.2130000      0.0000000E+00
  0.2135000      0.0000000E+00
  0.2140000      0.0000000E+00
  0.2145000      0.0000000E+00
  0.2150000      0.0000000E+00
  0.2155000      0.0000000E+00
  0.2160000      0.0000000E+00
  0.2165000      0.0000000E+00
  0.2170000      0.0000000E+00
  0.2175000      0.0000000E+00
  0.2180000      0.0000000E+00
  0.2185000      0.0000000E+00
  0.2190000      0.0000000E+00
  0.2195000      0.0000000E+00
  0.2200000      0.0000000E+00
  0.2205000      0.0000000E+00
  0.2210000      0.0000000E+00
  0.2215000      0.0000000E+00
  0.2220000      0.0000000E+00
  0.2225000      0.0000000E+00
  0.2230000      0.0000000E+00
  0.2235000      0.0000000E+00
  0.2240000      0.0000000E+00
  0.2245000      0.0000000E+00
  0.2250000      0.0000000E+00
  0.2255000      0.0000000E+00
  0.2260000      0.0000000E+00
  0.2265000      0.0000000E+00
  0.2270000      0.0000000E+00
  0.2275000      0.0000000E+00
  0.2280000      0.0000000E+00
  0.2285000      0.0000000E+00
  0.2290000      0.0000000E+00
  0.2295000      0.0000000E+00
  0.2300000      0.0000000E+00
  0.2305000      0.0000000E+00
  0.2310000      0.0000000E+00
  0.2315000      0.0000000E+00
  0.2320000      0.0000000E+00
  0.2325000      0.0000000E+00
  0.2330000      0.0000000E+00
  0.2335000      0.0000000E+00
  0.2340000      0.0000000E+00
  0.2345000      0.0000000E+00
  0.2350000      0.0000000E+00
  0.2355000      0.0000000E+00
  0.2360000      0.0000000E+00
  0.2365000      0.0000000E+00
  0.2370000      0.0000000E+00
  0.2375000      0.0000000E+00
  0.2380000      0.0000000E+00
  0.2385000      0.0000000E+00
  0.2390000      0.0000000E+00
  0.2395000      0.0000000E+00
  0.2400000      0.0000000E+00
  0.2405000      0.0000000E+00
  0.2410000      0.0000000E+00
  0.2415000      0.0000000E+00
  0.2420000      0.0000000E+00
  0.2425000      0.0000000E+00
  0.2430000      0.0000000E+00
  0.2435000      0.0000000E+00
  0.2440000      0.0000000E+00
  0.2445000      0.0000000E+00
  0.2450000      0.0000000E+00
  0.2455000      0.0000000E+00
  0.2460000      0.0000000E+00
  0.2465000      0.0000000E+00
  0.2470000      0.0000000E+00
  0.2475000      0.0000000E+00
  0.2480000      0.0000000E+00
  0.2485000      0.0000000E+00
  0.2490000      0.0000000E+00
  0.2495000      0.0000000E+00
  0.2500000      0.0000000E+00
  0.2505000      0.0000000E+00
  0.2510000      0.0000000E+00
  0.2515000      0.0000000E+00
  0.2520000      0.0000000E+00
  0.2525000      0.0000000E+00
  0.2530000      0.0000000E+00
  0.2535000      0.0000000E+00
  0.2540000      0.0000000E+00
  0.2545000      0.0000000E+00
  0.2550000      0.0000000E+00
  0.2555000      0.0000000E+00
  0.2560000      0.0000000E+00
  0.2565000      0.0000000E+00
  0.2570000      0.0000000E+00
  0.2575000      0.0000000E+00
  0.2580000      0.0000000E+00
  0.2585000      0.0000000E+00
  0.2590000      0.0000000E+00
  0.2595000      0.0000000E+00
  0.2600000      0.0000000E+00
  0.2605000      0.0000000E+00
  0.2610000      0.0000000E+00
  0.2615000      0.0000000E+00
  0.2620000      0.0000000E+00
  0.2625000      0.0000000E+00
  0.2630000      0.0000000E+00
  0.2635000      0.0000000E+00
  0.2640000      0.0000000E+00
  0.2645000      0.0000000E+00
  0.2650000      0.0000000E+00
  0.2655000      0.0000000E+00
  0.2660000      0.0000000E+00
  0.2665000      0.0000000E+00
  0.2670000      0.0000000E+00
  0.2675000      0.0000000E+00
  0.2680000      0.0000000E+00
  0.2685000      0.0000000E+00
  0.2690000      0.0000000E+00
  0.2695000      0.0000000E+00
  0.2700000      0.0000000E+00
  0.2705000      0.0000000E+00
  0.2710000      0.0000000E+00
  0.2715000      0.0000000E+00
  0.2720000      0.0000000E+00
  0.2725000      0.0000000E+00
  0.2730000      0.0000000E+00
  0.2735000      0.0000000E+00
  0.2740000      0.0000000E+00
  0.2745000      0.0000000E+00
  0.2750000      0.0000000E+00
  0.2755000      0.0000000E+00
  0.2760000      0.0000000E+00
  0.2765000      0.0000000E+00
  0.2770000      0.0000000E+00
  0.2775000      0.0000000E+00
  0.2780000      0.0000000E+00
  0.2785000      0.0000000E+00
  0.2790000      0.0000000E+00
  0.2795000      0.0000000E+00
  0.2800000      0.0000000E+00
  0.2805000      0.0000000E+00
  0.2810000      0.0000000E+00
  0.2815000      0.0000000E+00
  0.2820000      0.0000000E+00
  0.2825000      0.0000000E+00
  0.2830000      0.0000000E+00
  0.2835000      0.0000000E+00
  0.2840000      0.0000000E+00
  0.2845000      0.0000000E+00
  0.2850000      0.0000000E+00
  0.2855000      0.0000000E+00
  0.2860000      0.0000000E+00
  0.2865000      0.0000000E+00
  0.2870000      0.0000000E+00
  0.2875000      0.0000000E+00
  0.2880000      0.0000000E+00
  0.2885000      0.0000000E+00
  0.2890000      0.0000000E+00
  0.2895000      0.0000000E+00
  0.2900000      0.0000000E+00
  0.2905000      0.0000000E+00
  0.2910000      0.0000000E+00
  0.2915000      0.0000000E+00
  0.2920000      0.0000000E+00
  0.2925000      0.0000000E+00
  0.2930000      0.0000000E+00
  0.2935000      0.0000000E+00
  0.2940000      0.0000000E+00
  0.2945000      0.0000000E+00
  0.2950000      0.0000000E+00
  0.2955000      0.0000000E+00
  0.2960000      0.0000000E+00
  0.2965000      0.0000000E+00
  0.2970000      0.0000000E+00
  0.2975000      0.0000000E+00
  0.2980000      0.0000000E+00
  0.2985000      0.0000000E+00
  0.2990000      0.0000000E+00
  0.2995000      0.0000000E+00
  0.3000000      0.0000000E+00
  0.3005000      0.0000000E+00
  0.3010000      0.0000000E+00
  0.3015000      0.0000000E+00
  0.3020000      0.0000000E+00
  0.3025000      0.0000000E+00
  0.3030000      0.0000000E+00
  0.3035000      0.0000000E+00
  0.3040000      0.0000000E+00
  0.3045000      0.0000000E+00
  0.3050000      0.0000000E+00
  0.3055000      0.0000000E+00
  0.3060000      0.0000000E+00
  0.3065000      0.0000000E+00
  0.3070000      0.0000000E+00
  0.3075000      0.0000000E+00
  0.3080000      0.0000000E+00
  0.3085000      0.0000000E+00
  0.3090000      0.0000000E+00
  0.3095000      0.0000000E+00
  0.3100000      0.0000000E+00
  0.3105000      0.0000000E+00
  0.3110000      0.0000000E+00
  0.3115000      0.0000000E+00
  0.3120000      0.0000000E+00
  0.3125000      0.0000000E+00
  0.3130000      0.0000000E+00
  0.3135000      0.0000000E+00
  0.3140000      0.0000000E+00
  0.3145000      0.0000000E+00
  0.3150000      0.0000000E+00
  0.3155000      0.0000000E+00
  0.3160000      0.0000000E+00
  0.3165000      0.0000000E+00
  0.3170000      0.0000000E+00
  0.3175000      0.0000000E+00
  0.3180000      0.0000000E+00
  0.3185000      0.0000000E+00
  0.3190000      0.0000000E+00
  0.3195000      0.0000000E+00
  0.3200000      0.0000000E+00
  0.3205000      0.0000000E+00
  0.3210000      0.0000000E+00
  0.3215000      0.0000000E+00
  0.3220000      0.0000000E+00
  0.3225000      0.0000000E+00
  0.3230000      0.0000000E+00
  0.3235000      0.0000000E+00
  0.3240000      0.0000000E+00
  0.3245000      0.0000000E+00
  0.3250000      0.0000000E+00
  0.3255000      0.0000000E+00
  0.3260000      0.0000000E+00
  0.3265000      0.0000000E+00
  0.3270000      0.0000000E+00
  0.3275000      0.0000000E+00
  0.3280000      0.0000000E+00
  0.3285000      0.0000000E+00
  0.3290000      0.0000000E+00
  0.3295000      0.0000000E+00
  0.3300000      0.0000000E+00
  0.3305000      0.0000000E+00
  0.3310000      0.0000000E+00
  0.3315000      0.0000000E+00
  0.3320000      0.0000000E+00
  0.3325000      0.0000000E+00
  0.3330000      0.0000000E+00
  0.3335000      0.0000000E+00
  0.3340000      0.0000000E+00
  0.3345000      0.0000000E+00
  0.3350000      0.0000000E+00
  0.3355000      0.0000000E+00
  0.3360000      0.0000000E+00
  0.3365000      0.0000000E+00
  0.3370000      0.0000000E+00
  0.3375000      0.0000000E+00
  0.3380000      0.0000000E+00
  0.3385000      0.0000000E+00
  0.3390000      0.0000000E+00
  0.3395000      0.0000000E+00
  0.3400000      0.0000000E+00
  0.3405000      0.0000000E+00
  0.3410000      0.0000000E+00
  0.3415000      0.0000000E+00
  0.3420000      0.0000000E+00
  0.3425000      0.0000000E+00
  0.3430000      0.0000000E+00
  0.3435000      0.0000000E+00
  0.3440000      0.0000000E+00
  0.3445000      0.0000000E+00
  0.3450000      0.0000000E+00
  0.3455000      0.0000000E+00
  0.3460000      0.0000000E+00
  0.3465000      0.0000000E+00
  0.3470000      0.0000000E+00
  0.3475000      0.0000000E+00
  0.3480000      0.0000000E+00
  0.3485000      0.0000000E+00
  0.3490000      0.0000000E+00
  0.3495000      0.0000000E+00
  0.3500000      0.0000000E+00
  0.3505000      0.0000000E+00
  0.3510000      0.0000000E+00
  0.3515000      0.0000000E+00
  0.3520000      0.0000000E+00
  0.3525000      0.0000000E+00
  0.3530000      0.0000000E+00
  0.3535000      0.0000000E+00
  0.3540000      0.0000000E+00
  0.3545000      0.0000000E+00
  0.3550000      0.0000000E+00
  0.3555000      0.0000000E+00
  0.3560000      0.0000000E+00
  0.3565000      0.0000000E+00
  0.3570000      0.0000000E+00
  0.3575000      0.0000000E+00
  0.3580000      0.0000000E+00
  0.3585000      0.0000000E+00
  0.3590000     -1.2372536E-38
  0.3595000     -3.1482488E-38
  0.3600000     -8.2338151E-38
  0.3605000     -1.4198262E-37
  0.3610000     -1.8473830E-37
  0.3615000     -2.2557253E-37
  0.3620000     -2.4436497E-37
  0.3625000     -2.0936197E-37
  0.3630000     -1.4598500E-37
  0.3635000     -8.9060152E-38
  0.3640000      0.0000000E+00
  0.3645000      1.1170688E-37
  0.3650000      2.3078888E-37
  0.3655000      3.2869695E-37
  0.3660000      4.0003349E-37
  0.3665000      4.3162549E-37
  0.3670000      4.2857523E-37
  0.3675000      4.8927567E-37
  0.3680000      6.0069069E-37
  0.3685000      6.9454625E-37
  0.3690000      7.6302625E-37
  0.3695000      6.8663275E-37
  0.3700000      4.3934424E-37
  0.3705000      1.1059755E-37
  0.3710000      0.0000000E+00
  0.3715000      3.8271295E-37
  0.3720000      1.8849714E-36
  0.3725000      4.7843861E-36
  0.3730000      7.5050457E-36
  0.3735000      9.4599745E-36
  0.3740000      1.0682011E-35
  0.3745000      1.0155087E-35
  0.3750000      8.3460895E-36
  0.3755000      5.9856529E-36
  0.3760000      2.7682058E-36
  0.3765000     -1.0846467E-36
  0.3770000     -5.0438810E-36
  0.3775000     -8.3927520E-36
  0.3780000     -1.1021931E-35
  0.3785000     -1.2624453E-35
  0.3790000     -1.2098183E-35
  0.3795000     -9.8079908E-36
  0.3800000     -6.5862502E-36
  0.3805000     -2.5721515E-36
  0.3810000      1.8322243E-36
  0.3815000      6.5358813E-36
  0.3820000      1.1511614E-35
  0.3825000      1.7030887E-35
  0.3830000      2.3302191E-35
  0.3835000      2.5905964E-35
  0.3840000      1.8993772E-35
  0.3845000      1.6738318E-36
  0.3850000     -2.3249377E-35
  0.3855000     -5.1716201E-35
  0.3860000     -7.7545175E-35
  0.3865000     -9.4610403E-35
  0.3870000     -9.8555765E-35
  0.3875000     -8.6192182E-35
  0.3880000     -5.8047507E-35
  0.3885000     -1.6782379E-35
  0.3890000      3.2778818E-35
  0.3895000      8.2803136E-35
  0.3900000      1.2467324E-34
  0.3905000      1.5024757E-34
  0.3910000      1.5583546E-34
  0.3915000      1.4121558E-34
  0.3920000      1.1101033E-34
  0.3925000      7.1914477E-35
  0.3930000      3.0669537E-35
  0.3935000     -3.7413634E-36
  0.3940000     -2.5172661E-35
  0.3945000     -3.0493365E-35
  0.3950000     -1.9854879E-35
  0.3955000      2.2089581E-36
  0.3960000      2.6955885E-35
  0.3965000      4.4781617E-35
  0.3970000      4.8330226E-35
  0.3975000      3.3110470E-35
  0.3980000     -1.6123678E-36
  0.3985000     -5.2062392E-35
  0.3990000     -1.1088709E-34
  0.3995000     -1.6902833E-34
  0.4000000     -2.1688429E-34
  0.4005000     -2.4766672E-34
  0.4010000     -2.5630986E-34
  0.4015000     -2.4146254E-34
  0.4020000     -2.0813312E-34
  0.4025000     -1.6358681E-34
  0.4030000     -1.1611522E-34
  0.4035000     -7.3560049E-35
  0.4040000     -4.1580814E-35
  0.4045000     -2.2497491E-35
  0.4050000     -1.4693447E-35
  0.4055000     -1.3396474E-35
  0.4060000     -1.1284619E-35
  0.4065000     -8.5032414E-37
  0.4070000      2.3378414E-35
  0.4075000      6.4226779E-35
  0.4080000      1.2083718E-34
  0.4085000      1.8932693E-34
  0.4090000      2.6313597E-34
  0.4095000      3.3399539E-34
  0.4100000      3.9386454E-34
  0.4105000      4.3587500E-34
  0.4110000      4.5569834E-34
  0.4115000      4.5225928E-34
  0.4120000      4.2768801E-34
  0.4125000      3.8647573E-34
  0.4130000      3.3428320E-34
  0.4135000      2.7700575E-34
  0.4140000      2.2000307E-34
  0.4145000      1.6683727E-34
  0.4150000      1.1894268E-34
  0.4155000      7.5260084E-35
  0.4160000      3.2141069E-35
  0.4165000     -1.4546886E-35
  0.4170000     -6.9462820E-35
  0.4175000     -1.3615662E-34
  0.4180000     -2.1582875E-34
  0.4185000     -3.0712901E-34
  0.4190000     -4.0570911E-34
  0.4195000     -5.0492097E-34
  0.4200000     -5.9655131E-34
  0.4205000     -6.7213385E-34
  0.4210000     -7.2389380E-34
  0.4215000     -7.4625478E-34
  0.4220000     -7.3678236E-34
  0.4225000     -6.9637098E-34
  0.4230000     -6.2894380E-34
  0.4235000     -5.4066137E-34
  0.4240000     -4.3855587E-34
  0.4245000     -3.2916631E-34
  0.4250000     -2.1720980E-34
  0.4255000     -1.0477857E-34
  0.4260000      8.6715086E-36
  0.4265000      1.2566815E-34
  0.4270000      2.4948189E-34
  0.4275000      3.8239913E-34
  0.4280000      5.2423517E-34
  0.4285000      6.7130214E-34
  0.4290000      8.1597060E-34
  0.4295000      9.4726432E-34
  0.4300000      1.0521155E-33
  0.4305000      1.1172852E-33
  0.4310000      1.1314914E-33
  0.4315000      1.0872287E-33
  0.4320000      9.8193056E-34
  0.4325000      8.1828834E-34
  0.4330000      6.0365501E-34
  0.4335000      3.4864272E-34
  0.4340000      6.5346603E-35
  0.4345000     -2.3446511E-34
  0.4350000     -5.4072299E-34
  0.4355000     -8.4571217E-34
  0.4360000     -1.1439183E-33
  0.4365000     -1.4311095E-33
  0.4370000     -1.7029411E-33
  0.4375000     -1.9534771E-33
  0.4380000     -2.1740603E-33
  0.4385000     -2.3527817E-33
  0.4390000     -2.4746909E-33
  0.4395000     -2.5229551E-33
  0.4400000     -2.4805745E-33
  0.4405000     -2.3322690E-33
  0.4410000     -2.0663585E-33
  0.4415000     -1.6762098E-33
  0.4420000     -1.1610234E-33
  0.4425000     -5.2591617E-34
  0.4430000      2.1863504E-34
  0.4435000      1.0577559E-33
  0.4440000      1.9733066E-33
  0.4445000      2.9448762E-33
  0.4450000      3.9505081E-33
  0.4455000      4.9669349E-33
  0.4460000      5.9694281E-33
  0.4465000      6.9314677E-33
  0.4470000      7.8242520E-33
  0.4475000      8.6163398E-33
  0.4480000      9.2736013E-33
  0.4485000      9.7596153E-33
  0.4490000      1.0036488E-32
  0.4495000      1.0066097E-32
  0.4500000      9.8116809E-33
  0.4505000      9.2396310E-33
  0.4510000      8.3213561E-33
  0.4515000      7.0350633E-33
  0.4520000      5.3673120E-33
  0.4525000      3.3142751E-33
  0.4530000      8.8272352E-34
  0.4535000     -1.9093705E-33
  0.4540000     -5.0326105E-33
  0.4545000     -8.4462289E-33
  0.4550000     -1.2098364E-32
  0.4555000     -1.5926453E-32
  0.4560000     -1.9857598E-32
  0.4565000     -2.3808949E-32
  0.4570000     -2.7688058E-32
  0.4575000     -3.1393161E-32
  0.4580000     -3.4813579E-32
  0.4585000     -3.7830409E-32
  0.4590000     -4.0317667E-32
  0.4595000     -4.2144053E-32
  0.4600000     -4.3175552E-32
  0.4605000     -4.3278810E-32
  0.4610000     -4.2325261E-32
  0.4615000     -4.0195735E-32
  0.4620000     -3.6785306E-32
  0.4625000     -3.2008220E-32
  0.4630000     -2.5802577E-32
  0.4635000     -1.8134500E-32
  0.4640000     -9.0017969E-33
  0.4645000      1.5628572E-33
  0.4650000      1.3489168E-32
  0.4655000      2.6666615E-32
  0.4660000      4.0942095E-32
  0.4665000      5.6117701E-32
  0.4670000      7.1948835E-32
  0.4675000      8.8142939E-32
  0.4680000      1.0435906E-31
  0.4685000      1.2020892E-31
  0.4690000      1.3525966E-31
  0.4695000      1.4903877E-31
  0.4700000      1.6104103E-31
  0.4705000      1.7073771E-31
  0.4710000      1.7758777E-31
  0.4715000      1.8105072E-31
  0.4720000      1.8060104E-31
  0.4725000      1.7574351E-31
  0.4730000      1.6602943E-31
  0.4735000      1.5107345E-31
  0.4740000      1.3057070E-31
  0.4745000      1.0431434E-31
  0.4750000      7.2213039E-32
  0.4755000      3.4308099E-32
  0.4760000     -9.2101562E-33
  0.4765000     -5.7987642E-32
  0.4770000     -1.1149385E-31
  0.4775000     -1.6901224E-31
  0.4780000     -2.2963456E-31
  0.4785000     -2.9225973E-31
  0.4790000     -3.5559800E-31
  0.4795000     -4.1818089E-31
  0.4800000     -4.7837716E-31
  0.4805000     -5.3441542E-31
  0.4810000     -5.8441282E-31
  0.4815000     -6.2641013E-31
  0.4820000     -6.5841319E-31
  0.4825000     -6.7843986E-31
  0.4830000     -6.8457297E-31